# vtk DataFile Version 3.0
Output from R2
ASCII
DATASET UNSTRUCTURED_GRID
POINTS      11025 double
  -190.50000     0.00000   0.
  -190.50000    -0.25000   0.
  -190.50000    -0.50000   0.
  -190.50000    -0.75000   0.
  -190.50000    -1.00000   0.
  -190.50000    -1.25000   0.
  -190.50000    -1.50000   0.
  -190.50000    -1.75000   0.
  -190.50000    -2.00000   0.
  -190.50000    -2.25000   0.
  -190.50000    -2.50000   0.
  -190.50000    -2.75000   0.
  -190.50000    -3.00000   0.
  -190.50000    -3.25000   0.
  -190.50000    -3.50000   0.
  -190.50000    -3.75000   0.
  -190.50000    -4.00000   0.
  -190.50000    -4.25000   0.
  -190.50000    -4.50000   0.
  -190.50000    -4.75000   0.
  -190.50000    -5.00000   0.
  -190.50000    -5.25000   0.
  -190.50000    -5.50000   0.
  -190.50000    -5.75000   0.
  -190.50000    -6.00000   0.
  -190.50000    -6.25000   0.
  -190.50000    -6.50000   0.
  -190.50000    -6.75000   0.
  -190.50000    -7.00000   0.
  -190.50000    -7.25000   0.
  -190.50000    -7.50000   0.
  -190.50000    -7.75000   0.
  -190.50000    -8.00000   0.
  -190.50000    -8.25000   0.
  -190.50000    -8.50000   0.
  -190.50000    -8.75000   0.
  -190.50000    -9.00000   0.
  -190.50000    -9.25000   0.
  -190.50000    -9.50000   0.
  -190.50000    -9.75000   0.
  -190.50000   -10.00000   0.
  -190.50000   -10.50000   0.
  -190.50000   -11.50000   0.
  -190.50000   -13.50000   0.
  -190.50000   -18.50000   0.
  -190.50000   -28.50000   0.
  -190.50000   -48.50000   0.
  -190.50000   -98.50000   0.
  -190.50000  -198.50000   0.
   -90.50000     0.00000   0.
   -90.50000    -0.25000   0.
   -90.50000    -0.50000   0.
   -90.50000    -0.75000   0.
   -90.50000    -1.00000   0.
   -90.50000    -1.25000   0.
   -90.50000    -1.50000   0.
   -90.50000    -1.75000   0.
   -90.50000    -2.00000   0.
   -90.50000    -2.25000   0.
   -90.50000    -2.50000   0.
   -90.50000    -2.75000   0.
   -90.50000    -3.00000   0.
   -90.50000    -3.25000   0.
   -90.50000    -3.50000   0.
   -90.50000    -3.75000   0.
   -90.50000    -4.00000   0.
   -90.50000    -4.25000   0.
   -90.50000    -4.50000   0.
   -90.50000    -4.75000   0.
   -90.50000    -5.00000   0.
   -90.50000    -5.25000   0.
   -90.50000    -5.50000   0.
   -90.50000    -5.75000   0.
   -90.50000    -6.00000   0.
   -90.50000    -6.25000   0.
   -90.50000    -6.50000   0.
   -90.50000    -6.75000   0.
   -90.50000    -7.00000   0.
   -90.50000    -7.25000   0.
   -90.50000    -7.50000   0.
   -90.50000    -7.75000   0.
   -90.50000    -8.00000   0.
   -90.50000    -8.25000   0.
   -90.50000    -8.50000   0.
   -90.50000    -8.75000   0.
   -90.50000    -9.00000   0.
   -90.50000    -9.25000   0.
   -90.50000    -9.50000   0.
   -90.50000    -9.75000   0.
   -90.50000   -10.00000   0.
   -90.50000   -10.50000   0.
   -90.50000   -11.50000   0.
   -90.50000   -13.50000   0.
   -90.50000   -18.50000   0.
   -90.50000   -28.50000   0.
   -90.50000   -48.50000   0.
   -90.50000   -98.50000   0.
   -90.50000  -198.50000   0.
   -40.50000     0.00000   0.
   -40.50000    -0.25000   0.
   -40.50000    -0.50000   0.
   -40.50000    -0.75000   0.
   -40.50000    -1.00000   0.
   -40.50000    -1.25000   0.
   -40.50000    -1.50000   0.
   -40.50000    -1.75000   0.
   -40.50000    -2.00000   0.
   -40.50000    -2.25000   0.
   -40.50000    -2.50000   0.
   -40.50000    -2.75000   0.
   -40.50000    -3.00000   0.
   -40.50000    -3.25000   0.
   -40.50000    -3.50000   0.
   -40.50000    -3.75000   0.
   -40.50000    -4.00000   0.
   -40.50000    -4.25000   0.
   -40.50000    -4.50000   0.
   -40.50000    -4.75000   0.
   -40.50000    -5.00000   0.
   -40.50000    -5.25000   0.
   -40.50000    -5.50000   0.
   -40.50000    -5.75000   0.
   -40.50000    -6.00000   0.
   -40.50000    -6.25000   0.
   -40.50000    -6.50000   0.
   -40.50000    -6.75000   0.
   -40.50000    -7.00000   0.
   -40.50000    -7.25000   0.
   -40.50000    -7.50000   0.
   -40.50000    -7.75000   0.
   -40.50000    -8.00000   0.
   -40.50000    -8.25000   0.
   -40.50000    -8.50000   0.
   -40.50000    -8.75000   0.
   -40.50000    -9.00000   0.
   -40.50000    -9.25000   0.
   -40.50000    -9.50000   0.
   -40.50000    -9.75000   0.
   -40.50000   -10.00000   0.
   -40.50000   -10.50000   0.
   -40.50000   -11.50000   0.
   -40.50000   -13.50000   0.
   -40.50000   -18.50000   0.
   -40.50000   -28.50000   0.
   -40.50000   -48.50000   0.
   -40.50000   -98.50000   0.
   -40.50000  -198.50000   0.
   -20.50000     0.00000   0.
   -20.50000    -0.25000   0.
   -20.50000    -0.50000   0.
   -20.50000    -0.75000   0.
   -20.50000    -1.00000   0.
   -20.50000    -1.25000   0.
   -20.50000    -1.50000   0.
   -20.50000    -1.75000   0.
   -20.50000    -2.00000   0.
   -20.50000    -2.25000   0.
   -20.50000    -2.50000   0.
   -20.50000    -2.75000   0.
   -20.50000    -3.00000   0.
   -20.50000    -3.25000   0.
   -20.50000    -3.50000   0.
   -20.50000    -3.75000   0.
   -20.50000    -4.00000   0.
   -20.50000    -4.25000   0.
   -20.50000    -4.50000   0.
   -20.50000    -4.75000   0.
   -20.50000    -5.00000   0.
   -20.50000    -5.25000   0.
   -20.50000    -5.50000   0.
   -20.50000    -5.75000   0.
   -20.50000    -6.00000   0.
   -20.50000    -6.25000   0.
   -20.50000    -6.50000   0.
   -20.50000    -6.75000   0.
   -20.50000    -7.00000   0.
   -20.50000    -7.25000   0.
   -20.50000    -7.50000   0.
   -20.50000    -7.75000   0.
   -20.50000    -8.00000   0.
   -20.50000    -8.25000   0.
   -20.50000    -8.50000   0.
   -20.50000    -8.75000   0.
   -20.50000    -9.00000   0.
   -20.50000    -9.25000   0.
   -20.50000    -9.50000   0.
   -20.50000    -9.75000   0.
   -20.50000   -10.00000   0.
   -20.50000   -10.50000   0.
   -20.50000   -11.50000   0.
   -20.50000   -13.50000   0.
   -20.50000   -18.50000   0.
   -20.50000   -28.50000   0.
   -20.50000   -48.50000   0.
   -20.50000   -98.50000   0.
   -20.50000  -198.50000   0.
   -10.50000     0.00000   0.
   -10.50000    -0.25000   0.
   -10.50000    -0.50000   0.
   -10.50000    -0.75000   0.
   -10.50000    -1.00000   0.
   -10.50000    -1.25000   0.
   -10.50000    -1.50000   0.
   -10.50000    -1.75000   0.
   -10.50000    -2.00000   0.
   -10.50000    -2.25000   0.
   -10.50000    -2.50000   0.
   -10.50000    -2.75000   0.
   -10.50000    -3.00000   0.
   -10.50000    -3.25000   0.
   -10.50000    -3.50000   0.
   -10.50000    -3.75000   0.
   -10.50000    -4.00000   0.
   -10.50000    -4.25000   0.
   -10.50000    -4.50000   0.
   -10.50000    -4.75000   0.
   -10.50000    -5.00000   0.
   -10.50000    -5.25000   0.
   -10.50000    -5.50000   0.
   -10.50000    -5.75000   0.
   -10.50000    -6.00000   0.
   -10.50000    -6.25000   0.
   -10.50000    -6.50000   0.
   -10.50000    -6.75000   0.
   -10.50000    -7.00000   0.
   -10.50000    -7.25000   0.
   -10.50000    -7.50000   0.
   -10.50000    -7.75000   0.
   -10.50000    -8.00000   0.
   -10.50000    -8.25000   0.
   -10.50000    -8.50000   0.
   -10.50000    -8.75000   0.
   -10.50000    -9.00000   0.
   -10.50000    -9.25000   0.
   -10.50000    -9.50000   0.
   -10.50000    -9.75000   0.
   -10.50000   -10.00000   0.
   -10.50000   -10.50000   0.
   -10.50000   -11.50000   0.
   -10.50000   -13.50000   0.
   -10.50000   -18.50000   0.
   -10.50000   -28.50000   0.
   -10.50000   -48.50000   0.
   -10.50000   -98.50000   0.
   -10.50000  -198.50000   0.
    -5.50000     0.00000   0.
    -5.50000    -0.25000   0.
    -5.50000    -0.50000   0.
    -5.50000    -0.75000   0.
    -5.50000    -1.00000   0.
    -5.50000    -1.25000   0.
    -5.50000    -1.50000   0.
    -5.50000    -1.75000   0.
    -5.50000    -2.00000   0.
    -5.50000    -2.25000   0.
    -5.50000    -2.50000   0.
    -5.50000    -2.75000   0.
    -5.50000    -3.00000   0.
    -5.50000    -3.25000   0.
    -5.50000    -3.50000   0.
    -5.50000    -3.75000   0.
    -5.50000    -4.00000   0.
    -5.50000    -4.25000   0.
    -5.50000    -4.50000   0.
    -5.50000    -4.75000   0.
    -5.50000    -5.00000   0.
    -5.50000    -5.25000   0.
    -5.50000    -5.50000   0.
    -5.50000    -5.75000   0.
    -5.50000    -6.00000   0.
    -5.50000    -6.25000   0.
    -5.50000    -6.50000   0.
    -5.50000    -6.75000   0.
    -5.50000    -7.00000   0.
    -5.50000    -7.25000   0.
    -5.50000    -7.50000   0.
    -5.50000    -7.75000   0.
    -5.50000    -8.00000   0.
    -5.50000    -8.25000   0.
    -5.50000    -8.50000   0.
    -5.50000    -8.75000   0.
    -5.50000    -9.00000   0.
    -5.50000    -9.25000   0.
    -5.50000    -9.50000   0.
    -5.50000    -9.75000   0.
    -5.50000   -10.00000   0.
    -5.50000   -10.50000   0.
    -5.50000   -11.50000   0.
    -5.50000   -13.50000   0.
    -5.50000   -18.50000   0.
    -5.50000   -28.50000   0.
    -5.50000   -48.50000   0.
    -5.50000   -98.50000   0.
    -5.50000  -198.50000   0.
    -3.50000     0.00000   0.
    -3.50000    -0.25000   0.
    -3.50000    -0.50000   0.
    -3.50000    -0.75000   0.
    -3.50000    -1.00000   0.
    -3.50000    -1.25000   0.
    -3.50000    -1.50000   0.
    -3.50000    -1.75000   0.
    -3.50000    -2.00000   0.
    -3.50000    -2.25000   0.
    -3.50000    -2.50000   0.
    -3.50000    -2.75000   0.
    -3.50000    -3.00000   0.
    -3.50000    -3.25000   0.
    -3.50000    -3.50000   0.
    -3.50000    -3.75000   0.
    -3.50000    -4.00000   0.
    -3.50000    -4.25000   0.
    -3.50000    -4.50000   0.
    -3.50000    -4.75000   0.
    -3.50000    -5.00000   0.
    -3.50000    -5.25000   0.
    -3.50000    -5.50000   0.
    -3.50000    -5.75000   0.
    -3.50000    -6.00000   0.
    -3.50000    -6.25000   0.
    -3.50000    -6.50000   0.
    -3.50000    -6.75000   0.
    -3.50000    -7.00000   0.
    -3.50000    -7.25000   0.
    -3.50000    -7.50000   0.
    -3.50000    -7.75000   0.
    -3.50000    -8.00000   0.
    -3.50000    -8.25000   0.
    -3.50000    -8.50000   0.
    -3.50000    -8.75000   0.
[...]
POINT_DATA     11025
CELL_DATA     10752
SCALARS Resistivity(Ohm-m) double 1
LOOKUP_TABLE default
           397.35950           397.35950           397.35950           397.35950           397.83958           397.83958           397.83958           397.83958           398.73959           398.73959           398.73959           398.73959           399.89794           399.89794           399.89794           399.89794           401.24455           401.24455           401.24455           401.24455           402.80469           402.80469           402.80469           402.80469           404.53410           404.53410           404.53410           404.53410           406.33135           406.33135           406.33135           406.33135           408.21648           408.21648           408.21648           408.21648           410.15342           410.15342           410.15342           410.15342           410.57565           410.57565           410.57565           410.57565           410.59410           410.59410           410.59410           410.59410           397.35950           397.35950           397.35950           397.35950           397.83958           397.83958           397.83958           397.83958           398.73959           398.73959           398.73959           398.73959           399.89794           399.89794           399.89794           399.89794           401.24455           401.24455           401.24455           401.24455           402.80469           402.80469           402.80469           402.80469           404.53410           404.53410           404.53410           404.53410           406.33135           406.33135           406.33135           406.33135           408.21648           408.21648           408.21648           408.21648           410.15342           410.15342           410.15342           410.15342           410.57565           410.57565           410.57565           410.57565           410.59410           410.59410           410.59410           410.59410           397.35950           397.35950           397.35950           397.35950           397.83958           397.83958           397.83958           397.83958           398.73959           398.73959           398.73959           398.73959           399.89794           399.89794           399.89794           399.89794           401.24455           401.24455           401.24455           401.24455           402.80469           402.80469           402.80469           402.80469           404.53410           404.53410           404.53410           404.53410           406.33135           406.33135           406.33135           406.33135           408.21648           408.21648           408.21648           408.21648           410.15342           410.15342           410.15342           410.15342           410.57565           410.57565           410.57565           410.57565           410.59410           410.59410           410.59410           410.59410           397.35950           397.35950           397.35950           397.35950           397.83958           397.83958           397.83958           397.83958           398.73959           398.73959           398.73959           398.73959           399.89794           399.89794           399.89794           399.89794           401.24455           401.24455           401.24455           401.24455           402.80469           402.80469           402.80469           402.80469           404.53410           404.53410           404.53410           404.53410           406.33135           406.33135           406.33135           406.33135           408.21648           408.21648           408.21648           408.21648           410.15342           410.15342           410.15342           410.15342           410.57565           410.57565           410.57565           410.57565           410.59410           410.59410           410.59410           410.59410           396.44998           396.44998           396.44998           396.44998           397.17437           397.17437           397.17437           397.17437           398.27219           398.27219           398.27219           398.27219           399.48454           399.48454           399.48454           399.48454           400.90511           400.90511           400.90511           400.90511           402.53880           402.53880           402.53880           402.53880           404.32256           404.32256           404.32256           404.32256           406.22893           406.22893           406.22893           406.22893           408.17355           408.17355           408.17355           408.17355           410.14169           410.14169           410.14169           410.14169           410.57392           410.57392           410.57392           410.57392           410.60746           410.60746           410.60746           410.60746           396.44998           396.44998           396.44998           396.44998           397.17437           397.17437           397.17437           397.17437           398.27219           398.27219           398.27219           398.27219           399.48454           399.48454           399.48454           399.48454           400.90511           400.90511           400.90511           400.90511           402.53880           402.53880           402.53880           402.53880           404.32256           404.32256           404.32256           404.32256           406.22893           406.22893           406.22893           406.22893           408.17355           408.17355           408.17355           408.17355           410.14169           410.14169           410.14169           410.14169           410.57392           410.57392           410.57392           410.57392           410.60746           410.60746           410.60746           410.60746           396.44998           396.44998           396.44998           396.44998           397.17437           397.17437           397.17437           397.17437           398.27219           398.27219           398.27219           398.27219           399.48454           399.48454           399.48454           399.48454           400.90511           400.90511           400.90511           400.90511           402.53880           402.53880           402.53880           402.53880           404.32256           404.32256           404.32256           404.32256           406.22893           406.22893           406.22893           406.22893           408.17355           408.17355           408.17355           408.17355           410.14169           410.14169           410.14169           410.14169           410.57392           410.57392           410.57392           410.57392           410.60746           410.60746           410.60746           410.60746           396.44998           396.44998           396.44998           396.44998           397.17437           397.17437           397.17437           397.17437           398.27219           398.27219           398.27219           398.27219           399.48454           399.48454           399.48454           399.48454           400.90511           400.90511           400.90511           400.90511           402.53880           402.53880           402.53880           402.53880           404.32256           404.32256           404.32256           404.32256           406.22893           406.22893           406.22893           406.22893           408.17355           408.17355           408.17355           408.17355           410.14169           410.14169           410.14169           410.14169           410.57392           410.57392           410.57392           410.57392           410.60746           410.60746           410.60746           410.60746           385.14489           385.14489           385.14489           385.14489           389.00299           389.00299           389.00299           389.00299           392.38386           392.38386           392.38386           392.38386           395.17253           395.17253           395.17253           395.17253           397.69812           397.69812           397.69812           397.69812           400.16871           400.16871           400.16871           400.16871           402.97995           402.97995           402.97995           402.97995           405.53464           405.53464           405.53464           405.53464           407.86311           407.86311           407.86311           407.86311           410.17874           410.17874           410.17874           410.17874           410.82219           410.82219           410.82219           410.82219           410.86252           410.86252           410.86252           410.86252           385.14489           385.14489           385.14489           385.14489           389.00299           389.00299           389.00299           389.00299           392.38386           392.38386           392.38386           392.38386           395.17253           395.17253           395.17253           395.17253           397.69812           397.69812           397.69812           397.69812           400.16871           400.16871           400.16871           400.16871           402.97995           402.97995           402.97995           402.97995           405.53464           405.53464           405.53464           405.53464           407.86311           407.86311           407.86311           407.86311           410.17874           410.17874           410.17874           410.17874           410.82219           410.82219           410.82219           410.82219           410.86252           410.86252           410.86252           410.86252           385.14489           385.14489           385.14489           385.14489           389.00299           389.00299           389.00299           389.00299           392.38386           392.38386           392.38386           392.38386           395.17253           395.17253           395.17253           395.17253           397.69812           397.69812           397.69812           397.69812           400.16871           400.16871           400.16871           400.16871           402.97995           402.97995           402.97995           402.97995           405.53464           405.53464           405.53464           405.53464           407.86311           407.86311           407.86311           407.86311           410.17874           410.17874           410.17874           410.17874           410.82219           410.82219           410.82219           410.82219           410.86252           410.86252           410.86252           410.86252           385.14489           385.14489           385.14489           385.14489           389.00299           389.00299           389.00299           389.00299           392.38386           392.38386           392.38386           392.38386           395.17253           395.17253           395.17253           395.17253           397.69812           397.69812           397.69812           397.69812           400.16871           400.16871           400.16871           400.16871           402.97995           402.97995           402.97995           402.97995           405.53464           405.53464           405.53464           405.53464           407.86311           407.86311           407.86311           407.86311           410.17874           410.17874           410.17874           410.17874           410.82219           410.82219           410.82219           410.82219           410.86252           410.86252           410.86252           410.86252           346.59291           346.59291           346.59291           346.59291           357.97093           357.97093           357.97093           357.97093           367.43491           367.43491           367.43491           367.43491           375.73783           375.73783           375.73783           375.73783           382.98936           382.98936           382.98936           382.98936           389.87857           389.87857           389.87857           389.87857           396.06461           396.06461           396.06461           396.06461           401.78392           401.78392           401.78392           401.78392           406.66100           406.66100           406.66100           406.66100           411.28635           411.28635           411.28635           411.28635           412.01106           412.01106           412.01106           412.01106           412.07194           412.07194           412.07194           412.07194           346.59291           346.59291           346.59291           346.59291           357.97093           357.97093           357.97093           357.97093           367.43491           367.43491           367.43491           367.43491           375.73783           375.73783           375.73783           375.73783           382.98936           382.98936           382.98936           382.98936           389.87857           389.87857           389.87857           389.87857           396.06461           396.06461           396.06461           396.06461           401.78392           401.78392           401.78392           401.78392           406.66100           406.66100           406.66100           406.66100           411.28635           411.28635           411.28635           411.28635           412.01106           412.01106           412.01106           412.01106           412.07194           412.07194           412.07194           412.07194           346.59291           346.59291           346.59291           346.59291           357.97093           357.97093           357.97093           357.97093           367.43491           367.43491           367.43491           367.43491           375.73783           375.73783           375.73783           375.73783           382.98936           382.98936           382.98936           382.98936           389.87857           389.87857           389.87857           389.87857           396.06461           396.06461           396.06461           396.06461           401.78392           401.78392           401.78392           401.78392           406.66100           406.66100           406.66100           406.66100           411.28635           411.28635           411.28635           411.28635           412.01106           412.01106           412.01106           412.01106           412.07194           412.07194           412.07194           412.07194           346.59291           346.59291           346.59291           346.59291           357.97093           357.97093           357.97093           357.97093           367.43491           367.43491           367.43491           367.43491           375.73783           375.73783           375.73783           375.73783           382.98936           382.98936           382.98936           382.98936           389.87857           389.87857           389.87857           389.87857           396.06461           396.06461           396.06461           396.06461           401.78392           401.78392           401.78392           401.78392           406.66100           406.66100           406.66100           406.66100           411.28635           411.28635           411.28635           411.28635           412.01106           412.01106           412.01106           412.01106           412.07194           412.07194           412.07194           412.07194           311.70360           311.70360           311.70360           311.70360           323.51756           323.51756           323.51756           323.51756           338.73086           338.73086           338.73086           338.73086           354.08121           354.08121           354.08121           354.08121           368.04289           368.04289           368.04289           368.04289           379.71336           379.71336           379.71336           379.71336           389.90352           389.90352           389.90352           389.90352           398.60088           398.60088           398.60088           398.60088           405.95180           405.95180           405.95180           405.95180           411.98322           411.98322           411.98322           411.98322           413.30528           413.30528           413.30528           413.30528           413.35379           413.35379           413.35379           413.35379           311.70360           311.70360           311.70360           311.70360           323.51756           323.51756           323.51756           323.51756           338.73086           338.73086           338.73086           338.73086           354.08121           354.08121           354.08121           354.08121           368.04289           368.04289           368.04289           368.04289           379.71336           379.71336           379.71336           379.71336           389.90352           389.90352           389.90352           389.90352           398.60088           398.60088           398.60088           398.60088           405.95180           405.95180           405.95180           405.95180           411.98322           411.98322           411.98322           411.98322           413.30528           413.30528           413.30528           413.30528           413.35379           413.35379           413.35379           413.35379           311.70360           311.70360           311.70360           311.70360           323.51756           323.51756           323.51756           323.51756           338.73086           338.73086           338.73086           338.73086           354.08121           354.08121           354.08121           354.08121           368.04289           368.04289           368.04289           368.04289           379.71336           379.71336           379.71336           379.71336           389.90352           389.90352           389.90352           389.90352           398.60088           398.60088           398.60088           398.60088           405.95180           405.95180           405.95180           405.95180           411.98322           411.98322           411.98322           411.98322           413.30528           413.30528           413.30528           413.30528           413.35379           413.35379           413.35379           413.35379           311.70360           311.70360           311.70360           311.70360           323.51756           323.51756           323.51756           323.51756           338.73086           338.73086           338.73086           338.73086           354.08121           354.08121           354.08121           354.08121           368.04289           368.04289           368.04289           368.04289           379.71336           379.71336           379.71336           379.71336           389.90352           389.90352           389.90352           389.90352           398.60088           398.60088           398.60088           398.60088           405.95180           405.95180           405.95180           405.95180           411.98322           411.98322           411.98322           411.98322           413.30528           413.30528           413.30528           413.30528           413.35379           413.35379           413.35379           413.35379           241.22635           241.22635           241.22635           241.22635           270.51386           270.51386           270.51386           270.51386           300.30034           300.30034           300.30034           300.30034           327.56992           327.56992           327.56992           327.56992           350.50406           350.50406           350.50406           350.50406           369.00346           369.00346           369.00346           369.00346           384.02633           384.02633           384.02633           384.02633           395.88848           395.88848           395.88848           395.88848           405.12695           405.12695           405.12695  