# vtk DataFile Version 3.0
Output from R2
ASCII
DATASET UNSTRUCTURED_GRID
POINTS       5225 double
   -61.33500  1418.35000   0.
   -61.33500  1418.00700   0.
   -61.33500  1417.59500   0.
   -61.33500  1417.10100   0.
   -61.33500  1416.50800   0.
   -61.33500  1415.79700   0.
   -61.33500  1414.94300   0.
   -61.33500  1413.91900   0.
   -61.33500  1412.68900   0.
   -61.33500  1411.21400   0.
   -61.33500  1409.44400   0.
   -61.33500  1407.32000   0.
   -61.33500  1404.77100   0.
   -61.33500  1401.71200   0.
   -61.33500  1398.04100   0.
   -61.33500  1393.63600   0.
   -61.33500  1388.35000   0.
   -61.33500  1382.00700   0.
   -61.33500  1374.39500   0.
   -61.33500  1365.26100   0.
   -61.33500  1354.30000   0.
   -61.33500  1341.14700   0.
   -61.33500  1325.36400   0.
   -61.33500  1306.42300   0.
   -61.33500  1283.69500   0.
   -46.07400  1418.35000   0.
   -46.07400  1418.00700   0.
   -46.07400  1417.59500   0.
   -46.07400  1417.10100   0.
   -46.07400  1416.50800   0.
   -46.07400  1415.79700   0.
   -46.07400  1414.94300   0.
   -46.07400  1413.91900   0.
   -46.07400  1412.68900   0.
   -46.07400  1411.21400   0.
   -46.07400  1409.44400   0.
   -46.07400  1407.32000   0.
   -46.07400  1404.77100   0.
   -46.07400  1401.71200   0.
   -46.07400  1398.04100   0.
   -46.07400  1393.63600   0.
   -46.07400  1388.35000   0.
   -46.07400  1382.00700   0.
   -46.07400  1374.39500   0.
   -46.07400  1365.26100   0.
   -46.07400  1354.30000   0.
   -46.07400  1341.14700   0.
   -46.07400  1325.36400   0.
   -46.07400  1306.42300   0.
   -46.07400  1283.69500   0.
   -34.33400  1418.35000   0.
   -34.33400  1418.00700   0.
   -34.33400  1417.59500   0.
   -34.33400  1417.10100   0.
   -34.33400  1416.50800   0.
   -34.33400  1415.79700   0.
   -34.33400  1414.94300   0.
   -34.33400  1413.91900   0.
   -34.33400  1412.68900   0.
   -34.33400  1411.21400   0.
   -34.33400  1409.44400   0.
   -34.33400  1407.32000   0.
   -34.33400  1404.77100   0.
   -34.33400  1401.71200   0.
   -34.33400  1398.04100   0.
   -34.33400  1393.63600   0.
   -34.33400  1388.35000   0.
   -34.33400  1382.00700   0.
   -34.33400  1374.39500   0.
   -34.33400  1365.26100   0.
   -34.33400  1354.30000   0.
   -34.33400  1341.14700   0.
   -34.33400  1325.36400   0.
   -34.33400  1306.42300   0.
   -34.33400  1283.69500   0.
   -25.30400  1418.35000   0.
   -25.30400  1418.00700   0.
   -25.30400  1417.59500   0.
   -25.30400  1417.10100   0.
   -25.30400  1416.50800   0.
   -25.30400  1415.79700   0.
   -25.30400  1414.94300   0.
   -25.30400  1413.91900   0.
   -25.30400  1412.68900   0.
   -25.30400  1411.21400   0.
   -25.30400  1409.44400   0.
   -25.30400  1407.32000   0.
   -25.30400  1404.77100   0.
   -25.30400  1401.71200   0.
   -25.30400  1398.04100   0.
   -25.30400  1393.63600   0.
   -25.30400  1388.35000   0.
   -25.30400  1382.00700   0.
   -25.30400  1374.39500   0.
   -25.30400  1365.26100   0.
   -25.30400  1354.30000   0.
   -25.30400  1341.14700   0.
   -25.30400  1325.36400   0.
   -25.30400  1306.42300   0.
   -25.30400  1283.69500   0.
   -18.35800  1418.35000   0.
   -18.35800  1418.00700   0.
   -18.35800  1417.59500   0.
   -18.35800  1417.10100   0.
   -18.35800  1416.50800   0.
   -18.35800  1415.79700   0.
   -18.35800  1414.94300   0.
   -18.35800  1413.91900   0.
   -18.35800  1412.68900   0.
   -18.35800  1411.21400   0.
   -18.35800  1409.44400   0.
   -18.35800  1407.32000   0.
   -18.35800  1404.77100   0.
   -18.35800  1401.71200   0.
   -18.35800  1398.04100   0.
   -18.35800  1393.63600   0.
   -18.35800  1388.35000   0.
   -18.35800  1382.00700   0.
   -18.35800  1374.39500   0.
   -18.35800  1365.26100   0.
   -18.35800  1354.30000   0.
   -18.35800  1341.14700   0.
   -18.35800  1325.36400   0.
   -18.35800  1306.42300   0.
   -18.35800  1283.69500   0.
   -13.01400  1418.35000   0.
   -13.01400  1418.00700   0.
   -13.01400  1417.59500   0.
   -13.01400  1417.10100   0.
   -13.01400  1416.50800   0.
   -13.01400  1415.79700   0.
   -13.01400  1414.94300   0.
   -13.01400  1413.91900   0.
   -13.01400  1412.68900   0.
   -13.01400  1411.21400   0.
   -13.01400  1409.44400   0.
   -13.01400  1407.32000   0.
   -13.01400  1404.77100   0.
   -13.01400  1401.71200   0.
   -13.01400  1398.04100   0.
   -13.01400  1393.63600   0.
   -13.01400  1388.35000   0.
   -13.01400  1382.00700   0.
   -13.01400  1374.39500   0.
   -13.01400  1365.26100   0.
   -13.01400  1354.30000   0.
   -13.01400  1341.14700   0.
   -13.01400  1325.36400   0.
   -13.01400  1306.42300   0.
   -13.01400  1283.69500   0.
    -8.90400  1418.35000   0.
    -8.90400  1418.00700   0.
    -8.90400  1417.59500   0.
    -8.90400  1417.10100   0.
    -8.90400  1416.50800   0.
    -8.90400  1415.79700   0.
    -8.90400  1414.94300   0.
    -8.90400  1413.91900   0.
    -8.90400  1412.68900   0.
    -8.90400  1411.21400   0.
    -8.90400  1409.44400   0.
    -8.90400  1407.32000   0.
    -8.90400  1404.77100   0.
    -8.90400  1401.71200   0.
    -8.90400  1398.04100   0.
    -8.90400  1393.63600   0.
    -8.90400  1388.35000   0.
    -8.90400  1382.00700   0.
    -8.90400  1374.39500   0.
    -8.90400  1365.26100   0.
    -8.90400  1354.30000   0.
    -8.90400  1341.14700   0.
    -8.90400  1325.36400   0.
    -8.90400  1306.42300   0.
    -8.90400  1283.69500   0.
    -5.74200  1418.35000   0.
    -5.74200  1418.00700   0.
    -5.74200  1417.59500   0.
    -5.74200  1417.10100   0.
    -5.74200  1416.50800   0.
    -5.74200  1415.79700   0.
    -5.74200  1414.94300   0.
    -5.74200  1413.91900   0.
    -5.74200  1412.68900   0.
    -5.74200  1411.21400   0.
    -5.74200  1409.44400   0.
    -5.74200  1407.32000   0.
    -5.74200  1404.77100   0.
    -5.74200  1401.71200   0.
    -5.74200  1398.04100   0.
    -5.74200  1393.63600   0.
    -5.74200  1388.35000   0.
    -5.74200  1382.00700   0.
    -5.74200  1374.39500   0.
    -5.74200  1365.26100   0.
    -5.74200  1354.30000   0.
    -5.74200  1341.14700   0.
    -5.74200  1325.36400   0.
    -5.74200  1306.42300   0.
    -5.74200  1283.69500   0.
    -3.31000  1418.35000   0.
    -3.31000  1418.00700   0.
    -3.31000  1417.59500   0.
    -3.31000  1417.10100   0.
    -3.31000  1416.50800   0.
    -3.31000  1415.79700   0.
    -3.31000  1414.94300   0.
    -3.31000  1413.91900   0.
    -3.31000  1412.68900   0.
    -3.31000  1411.21400   0.
    -3.31000  1409.44400   0.
    -3.31000  1407.32000   0.
    -3.31000  1404.77100   0.
    -3.31000  1401.71200   0.
    -3.31000  1398.04100   0.
    -3.31000  1393.63600   0.
    -3.31000  1388.35000   0.
    -3.31000  1382.00700   0.
    -3.31000  1374.39500   0.
    -3.31000  1365.26100   0.
    -3.31000  1354.30000   0.
    -3.31000  1341.14700   0.
    -3.31000  1325.36400   0.
    -3.31000  1306.42300   0.
    -3.31000  1283.69500   0.
    -1.43900  1418.35000   0.
    -1.43900  1418.00700   0.
    -1.43900  1417.59500   0.
    -1.43900  1417.10100   0.
    -1.43900  1416.50800   0.
    -1.43900  1415.79700   0.
    -1.43900  1414.94300   0.
    -1.43900  1413.91900   0.
    -1.43900  1412.68900   0.
    -1.43900  1411.21400   0.
    -1.43900  1409.44400   0.
    -1.43900  1407.32000   0.
    -1.43900  1404.77100   0.
    -1.43900  1401.71200   0.
    -1.43900  1398.04100   0.
    -1.43900  1393.63600   0.
    -1.43900  1388.35000   0.
    -1.43900  1382.00700   0.
    -1.43900  1374.39500   0.
    -1.43900  1365.26100   0.
    -1.43900  1354.30000   0.
    -1.43900  1341.14700   0.
    -1.43900  1325.36400   0.
    -1.43900  1306.42300   0.
    -1.43900  1283.69500   0.
     0.00000  1418.35000   0.
     0.00000  1418.00700   0.
     0.00000  1417.59500   0.
     0.00000  1417.10100   0.
     0.00000  1416.50800   0.
     0.00000  1415.79700   0.
     0.00000  1414.94300   0.
     0.00000  1413.91900   0.
     0.00000  1412.68900   0.
     0.00000  1411.21400   0.
     0.00000  1409.44400   0.
     0.00000  1407.32000   0.
     0.00000  1404.77100   0.
     0.00000  1401.71200   0.
     0.00000  1398.04100   0.
     0.00000  1393.63600   0.
     0.00000  1388.35000   0.
     0.00000  1382.00700   0.
     0.00000  1374.39500   0.
     0.00000  1365.26100   0.
     0.00000  1354.30000   0.
     0.00000  1341.14700   0.
     0.00000  1325.36400   0.
     0.00000  1306.42300   0.
     0.00000  1283.69500   0.
     1.21000  1417.80500   0.
     1.21000  1417.46200   0.
     1.21000  1417.05000   0.
     1.21000  1416.55600   0.
     1.21000  1415.96300   0.
     1.21000  1415.25200   0.
     1.21000  1414.39800   0.
     1.21000  1413.37400   0.
     1.21000  1412.14400   0.
     1.21000  1410.66900   0.
     1.21000  1408.89900   0.
     1.21000  1406.77500   0.
     1.21000  1404.22600   0.
     1.21000  1401.16700   0.
     1.21000  1397.49600   0.
     1.21000  1393.09100   0.
     1.21000  1387.80500   0.
     1.21000  1381.46200   0.
     1.21000  1373.85000   0.
     1.21000  1364.71600   0.
     1.21000  1353.75500   0.
     1.21000  1340.60200   0.
     1.21000  1324.81900   0.
     1.21000  1305.87800   0.
     1.21000  1283.15000   0.
     2.42000  1417.26000   0.
     2.42000  1416.91700   0.
     2.42000  1416.50500   0.
     2.42000  1416.01100   0.
     2.42000  1415.41800   0.
     2.42000  1414.70700   0.
     2.42000  1413.85300   0.
     2.42000  1412.82900   0.
     2.42000  1411.59900   0.
     2.42000  1410.12400   0.
     2.42000  1408.35400   0.
     2.42000  1406.23000   0.
     2.42000  1403.68100   0.
     2.42000  1400.62200   0.
     2.42000  1396.95100   0.
     2.42000  1392.54600   0.
     2.42000  1387.26000   0.
     2.42000  1380.91700   0.
     2.42000  1373.30500   0.
[...]
POINT_DATA      5225
CELL_DATA      4992
SCALARS Resistivity(Ohm-m) double 1
LOOKUP_TABLE default
           100.00000           100.00000           100.00000           100.00000           100.00000           100.00000           100.00000           100.00000           100.00000           100.00000           100.00000           100.00000           100.00000           100.00000           100.00000           100.00000           100.00000           100.00000           100.00000           100.00000           100.00000           100.00000           100.00000           100.00000           100.00000           100.00000           100.00000           100.00000           100.00000           100.00000           100.00000           100.00000           100.00000           100.00000           100.00000           100.00000           100.00000           100.00000           100.00000           100.00000           100.00000           100.00000           100.00000           100.00000           100.00000           100.00000           100.00000           100.00000           100.00000           100.00000           100.00000           100.00000           100.00000           100.00000           100.00000           100.00000           100.00000           100.00000           100.00000           100.00000           100.00000           100.00000           100.00000           100.00000           100.00000           100.00000           100.00000           100.00000           100.00000           100.00000           100.00000           100.00000           100.00000           100.00000           100.00000           100.00000           100.00000           100.00000           100.00000           100.00000           100.00000           100.00000           100.00000           100.00000           100.00000           100.00000           100.00000           100.00000           100.00000           100.00000           100.00000           100.00000           100.00000           100.00000           100.00000           100.00000           100.00000           100.00000           100.00000           100.00000           100.00000           100.00000           100.00000           100.00000           100.00000           100.00000           100.00000           100.00000           100.00000           100.00000           100.00000           100.00000           100.00000           100.00000           100.00000           100.00000           100.00000           100.00000           100.00000           100.00000           100.00000           100.00000           100.00000           100.00000           100.00000           100.00000           100.00000           100.00000           100.00000           100.00000           100.00000           100.00000           100.00000           100.00000           100.00000           100.00000           100.00000           100.00000           100.00000           100.00000           100.00000           100.00000           100.00000           100.00000           100.00000           100.00000           100.00000           100.00000           100.00000           100.00000           100.00000           100.00000           100.00000           100.00000           100.00000           100.00000           100.00000           100.00000           100.00000           100.00000           100.00000           100.00000           100.00000           100.00000           100.00000           100.00000           100.00000           100.00000           100.00000           100.00000           100.00000           100.00000           100.00000           100.00000           100.00000           100.00000           100.00000           100.00000           100.00000           100.00000           100.00000           100.00000           100.00000           100.00000           100.00000           100.00000           100.00000           100.00000           100.00000           100.00000           100.00000           100.00000           100.00000           100.00000           100.00000           100.00000           100.00000           100.00000           100.00000           100.00000           100.00000           100.00000           100.00000           100.00000           100.00000           100.00000           100.00000           100.00000           100.00000           100.00000           100.00000           100.00000           100.00000           100.00000           100.00000           100.00000           100.00000           100.00000           100.00000           100.00000           100.00000           100.00000           100.00000           100.00000           100.00000           100.00000           100.00000           100.00000           100.00000           100.00000           100.00000           100.00000           100.00000           100.00000           100.00000           100.00000           100.00000           100.00000           100.00000           100.00000           100.00000           100.00000           100.00000           100.00000           100.00000           100.00000           100.00000           100.00000           100.00000           100.00000           100.00000           100.00000           100.00000           100.00000           100.00000           100.00000           100.00000           100.00000           100.00000           100.00000           100.00000           100.00000           100.00000           100.00000           100.00000           100.00000           100.00000           100.00000           100.00000           100.00000           100.00000           100.00000           100.00000           100.00000           100.00000           100.00000           100.00000           100.00000           100.00000           100.00000           100.00000           100.00000           100.00000           100.00000           100.00000           100.00000           100.00000           100.00000           100.00000           100.00000           100.00000           100.00000           100.00000           100.00000           100.00000           100.00000           100.00000           100.00000           100.00000           100.00000           100.00000           100.00000           100.00000           100.00000           100.00000           100.00000           100.00000           100.00000           100.00000           100.00000           100.00000           100.00000           100.00000           100.00000           100.00000           100.00000           100.00000           100.00000           100.00000           100.00000           100.00000           100.00000           100.00000           100.00000           100.00000           100.00000           100.00000           100.00000           100.00000           100.00000           100.00000           100.00000           100.00000           100.00000           100.00000           100.00000           100.00000           100.00000           100.00000           100.00000           100.00000           100.00000           100.00000           100.00000           100.00000           100.00000           100.00000           100.00000           100.00000           100.00000           100.00000           100.00000           100.00000           100.00000           100.00000           100.00000           100.00000           100.00000           100.00000           100.00000           100.00000           100.00000           100.00000           100.00000           100.00000           100.00000           100.00000           100.00000           100.00000           100.00000           100.00000           100.00000           100.00000           100.00000           100.00000           100.00000           100.00000           100.00000           100.00000           100.00000           100.00000           100.00000           100.00000           100.00000           100.00000           100.00000           100.00000           100.00000           100.00000           100.00000           100.00000           100.00000           100.00000           100.00000           100.00000           100.00000           100.00000           100.00000           100.00000           100.00000           100.00000           100.00000           100.00000           100.00000           100.00000           100.00000           100.00000           100.00000           100.00000           100.00000           100.00000           100.00000           100.00000           100.00000           100.00000           100.00000           100.00000           100.00000           100.00000           100.00000           100.00000           100.00000           100.00000           100.00000           100.00000           100.00000           100.00000           100.00000           100.00000           100.00000           100.00000           100.00000           100.00000           100.00000           100.00000           100.00000           100.00000           100.00000           100.00000           100.00000           100.00000           100.00000           100.00000           100.00000           100.00000           100.00000           100.00000           100.00000           100.00000           100.00000           100.00000           100.00000           100.00000           100.00000           100.00000           100.00000           100.00000           100.00000           100.00000           100.00000           100.00000           100.00000           100.00000           100.00000           100.00000           100.00000           100.00000           100.00000           100.00000           100.00000           100.00000           100.00000           100.00000           100.00000           100.00000           100.00000           100.00000           100.00000           100.00000           100.00000           100.00000           100.00000           100.00000           100.00000           100.00000           100.00000           100.00000           100.00000           100.00000           100.00000           100.00000           100.00000           100.00000           100.00000           100.00000           100.00000           100.00000           100.00000           100.00000           100.00000           100.00000           100.00000           100.00000           100.00000           100.00000           100.00000           100.00000           100.00000           100.00000           100.00000           100.00000           100.00000           100.00000           100.00000           100.00000           100.00000           100.00000           100.00000           100.00000           100.00000           100.00000           100.00000           100.00000           100.00000           100.00000           100.00000           100.00000           100.00000           100.00000           100.00000           100.00000           100.00000           100.00000           100.00000           100.00000           100.00000           100.00000           100.00000           100.00000           100.00000           100.00000           100.00000           100.00000           100.00000           100.00000           100.00000           100.00000           100.00000           100.00000           100.00000           100.00000           100.00000           100.00000           100.00000           100.00000           100.00000           100.00000           100.00000           100.00000           100.00000           100.00000           100.00000           100.00000           100.00000           100.00000           100.00000           100.00000           100.00000           100.00000           100.00000           100.00000           100.00000           100.00000           100.00000           100.00000           100.00000           100.00000           100.00000           100.00000           100.00000           100.00000           100.00000           100.00000           100.00000           100.00000           100.00000           100.00000           100.00000           100.00000           100.00000           100.00000           100.00000           100.00000           100.00000           100.00000           100.00000           100.00000           100.00000           100.00000           100.00000           100.00000           100.00000           100.00000           100.00000           100.00000           100.00000           100.00000           100.00000           100.00000           100.00000           100.00000           100.00000           100.00000           100.00000           100.00000           100.00000           100.00000           100.00000           100.00000           100.00000           100.00000           100.00000           100.00000           100.00000           100.00000           100.00000           100.00000           100.00000           100.00000           100.00000           100.00000           100.00000           100.00000           100.00000           100.00000           100.00000           100.00000           100.00000           100.00000           100.00000           100.00000           100.00000           100.00000           100.00000           100.00000           100.00000           100.00000           100.00000           100.00000           100.00000           100.00000           100.00000           100.00000           100.00000           100.00000           100.00000           100.00000           100.00000           100.00000           100.00000           100.00000           100.00000           100.00000           100.00000           100.00000           100.00000           100.00000           100.00000           100.00000           100.00000           100.00000           100.00000           100.00000           100.00000           100.00000           100.00000           100.00000           100.00000           100.00000           100.00000           100.00000           100.00000           100.00000           100.00000           100.00000           100.00000           100.00000           100.00000           100.00000           100.00000           100.00000           100.00000           100.00000           100.00000           100.00000           100.00000           100.00000           100.00000           100.00000           100.00000           100.00000           100.00000           100.00000           100.00000           100.00000           100.00000           100.00000           100.00000           100.00000           100.00000           100.00000           100.00000           100.00000           100.00000           100.00000           100.00000           100.00000           100.00000           100.00000           100.00000           100.00000           100.00000           100.00000           100.00000           100.00000           100.00000           100.00000           100.00000           100.00000           100.00000           100.00000           100.00000           100.00000           100.00000           100.00000           100.00000           100.00000           100.00000           100.00000           100.00000           100.00000           100.00000           100.00000           100.00000           100.00000           100.00000           100.00000           100.00000           100.00000           100.00000           100.00000           100.00000           100.00000           100.00000           100.00000           100.00000           100.00000           100.00000           100.00000           100.00000           100.00000           100.00000           100.00000           100.00000           100.00000           100.00000           100.00000           100.00000           100.00000           100.00000           100.00000           100.00000           100.00000           100.00000           100.00000           100.00000           100.00000           100.00000           100.00000           100.00000           100.00000           100.00000           100.00000           100.00000           100.00000           100.00000           100.00000           100.00000           100.00000           100.00000           100.00000           100.00000           100.00000           100.00000           100.00000           100.00000           100.00000           100.00000           100.00000           100.00000           100.00000           100.00000           100.00000           100.00000           100.00000           100.00000           100.00000           100.00000           100.00000           100.00000           100.00000           100.00000           100.00000           100.00000           100.00000           100.00000           100.00000           100.00000           100.00000           100.00000           100.00000           100.00000           100.00000           100.00000           100.00000           100.00000           100.00000           100.00000           100.00000           100.00000           100.00000           100.00000           100.00000           100.00000           100.00000           100.00000           100.00000           100.00000           100.00000           100.00000           100.00000           100.00000           100.00000           100.00000           100.00000           100.00000           100.00000           100.00000           100.00000           100.00000           100.00000           100.00000           100.00000           100.00000           100.00000           100.00000           100.00000           100.00000           100.00000           100.00000           100.00000           100.00000           100.00000           100.00000           100.00000           100.00000           100.00000           100.00000           100.00000           100.00000           100.00000           100.00000           100.00000           100.00000           100.00000           100.00000           100.00000           100.00000           100.00000           100.00000           100.00000           100.00000           100.00000           100.00000           100.00000           100.00000           100.00000           100.00000           100.00000           100.00000           100.00000           100.00000           100.00000           100.00000           100.00000           100.00000           100.00000           100.00000           100.00000           100.00000           100.00000           100.00000           100.00000           100.00000           100.00000           100.00000           100.00000           100.00000           100.00000           100.00000           100.00000           100.00000           100.00000           100.00000           100.00000           100.00000           100.00000           100.00000           100.00000           100.00000           100.00000           100.00000           100.00000           100.00000           100.00000           100.00000           100.00000           100.00000           100.00000           100.00000           100.00000           100.00000           100.00000           100.00000           100.00000           100.00000           100.00000           100.00000           100.00000           100.00000           100.00000           100.00000           100.00000           100.00000           100.00000           100.00000           100.00000           100.00000           100.00000           100.00000           100.00000           100.00000           100.00000           100.00000           100.00000           100.00000           100.00000           100.00000           100.00000           100.00000           100.00000           100.00000           100.00000           100.00000           100.00000           100.00000           100.00000           100.00000           100.00000           100.00000           100.00000           100.00000           100.00000           100.00000           100.00000           100.00000           100.00000           100.00000           100.00000           100.00000           100.00000           100.00000           100.00000           100.00000           100.00000           100.00000           100.00000           100.00000           100.00000           100.00000           100.00000           100.00000           100.00000           100.00000           100.000