# vtk DataFile Version 3.0
Output from R2
ASCII
DATASET UNSTRUCTURED_GRID
POINTS       8151 double
   -27.70300     0.00000   0.
   -27.70300    -0.50000   0.
   -27.70300    -1.00000   0.
   -27.70300    -1.50000   0.
   -27.70300    -2.00000   0.
   -27.70300    -2.50000   0.
   -27.70300    -3.00000   0.
   -27.70300    -3.50000   0.
   -27.70300    -4.00000   0.
   -27.70300    -4.50000   0.
   -27.70300    -5.00000   0.
   -27.70300    -5.50000   0.
   -27.70300    -6.00000   0.
   -27.70300    -6.50000   0.
   -27.70300    -7.00000   0.
   -27.70300    -7.50000   0.
   -27.70300    -8.00000   0.
   -27.70300    -8.50000   0.
   -27.70300    -9.00000   0.
   -27.70300    -9.50000   0.
   -27.70300   -10.00000   0.
   -27.70300   -10.50000   0.
   -27.70300   -11.00000   0.
   -27.70300   -11.50000   0.
   -27.70300   -12.00000   0.
   -27.70300   -12.50000   0.
   -27.70300   -13.00000   0.
   -27.70300   -13.50000   0.
   -27.70300   -14.00000   0.
   -27.70300   -14.75000   0.
   -27.70300   -15.88000   0.
   -27.70300   -17.56000   0.
   -27.70300   -20.09000   0.
   -27.70300   -23.89000   0.
   -27.70300   -29.59000   0.
   -27.70300   -38.13000   0.
   -27.70300   -50.94000   0.
   -27.70300   -70.17000   0.
   -27.70300   -99.00000   0.
   -20.81000     0.00000   0.
   -20.81000    -0.50000   0.
   -20.81000    -1.00000   0.
   -20.81000    -1.50000   0.
   -20.81000    -2.00000   0.
   -20.81000    -2.50000   0.
   -20.81000    -3.00000   0.
   -20.81000    -3.50000   0.
   -20.81000    -4.00000   0.
   -20.81000    -4.50000   0.
   -20.81000    -5.00000   0.
   -20.81000    -5.50000   0.
   -20.81000    -6.00000   0.
   -20.81000    -6.50000   0.
   -20.81000    -7.00000   0.
   -20.81000    -7.50000   0.
   -20.81000    -8.00000   0.
   -20.81000    -8.50000   0.
   -20.81000    -9.00000   0.
   -20.81000    -9.50000   0.
   -20.81000   -10.00000   0.
   -20.81000   -10.50000   0.
   -20.81000   -11.00000   0.
   -20.81000   -11.50000   0.
   -20.81000   -12.00000   0.
   -20.81000   -12.50000   0.
   -20.81000   -13.00000   0.
   -20.81000   -13.50000   0.
   -20.81000   -14.00000   0.
   -20.81000   -14.75000   0.
   -20.81000   -15.88000   0.
   -20.81000   -17.56000   0.
   -20.81000   -20.09000   0.
   -20.81000   -23.89000   0.
   -20.81000   -29.59000   0.
   -20.81000   -38.13000   0.
   -20.81000   -50.94000   0.
   -20.81000   -70.17000   0.
   -20.81000   -99.00000   0.
   -15.50700     0.00000   0.
   -15.50700    -0.50000   0.
   -15.50700    -1.00000   0.
   -15.50700    -1.50000   0.
   -15.50700    -2.00000   0.
   -15.50700    -2.50000   0.
   -15.50700    -3.00000   0.
   -15.50700    -3.50000   0.
   -15.50700    -4.00000   0.
   -15.50700    -4.50000   0.
   -15.50700    -5.00000   0.
   -15.50700    -5.50000   0.
   -15.50700    -6.00000   0.
   -15.50700    -6.50000   0.
   -15.50700    -7.00000   0.
   -15.50700    -7.50000   0.
   -15.50700    -8.00000   0.
   -15.50700    -8.50000   0.
   -15.50700    -9.00000   0.
   -15.50700    -9.50000   0.
   -15.50700   -10.00000   0.
   -15.50700   -10.50000   0.
   -15.50700   -11.00000   0.
   -15.50700   -11.50000   0.
   -15.50700   -12.00000   0.
   -15.50700   -12.50000   0.
   -15.50700   -13.00000   0.
   -15.50700   -13.50000   0.
   -15.50700   -14.00000   0.
   -15.50700   -14.75000   0.
   -15.50700   -15.88000   0.
   -15.50700   -17.56000   0.
   -15.50700   -20.09000   0.
   -15.50700   -23.89000   0.
   -15.50700   -29.59000   0.
   -15.50700   -38.13000   0.
   -15.50700   -50.94000   0.
   -15.50700   -70.17000   0.
   -15.50700   -99.00000   0.
   -11.42900     0.00000   0.
   -11.42900    -0.50000   0.
   -11.42900    -1.00000   0.
   -11.42900    -1.50000   0.
   -11.42900    -2.00000   0.
   -11.42900    -2.50000   0.
   -11.42900    -3.00000   0.
   -11.42900    -3.50000   0.
   -11.42900    -4.00000   0.
   -11.42900    -4.50000   0.
   -11.42900    -5.00000   0.
   -11.42900    -5.50000   0.
   -11.42900    -6.00000   0.
   -11.42900    -6.50000   0.
   -11.42900    -7.00000   0.
   -11.42900    -7.50000   0.
   -11.42900    -8.00000   0.
   -11.42900    -8.50000   0.
   -11.42900    -9.00000   0.
   -11.42900    -9.50000   0.
   -11.42900   -10.00000   0.
   -11.42900   -10.50000   0.
   -11.42900   -11.00000   0.
   -11.42900   -11.50000   0.
   -11.42900   -12.00000   0.
   -11.42900   -12.50000   0.
   -11.42900   -13.00000   0.
   -11.42900   -13.50000   0.
   -11.42900   -14.00000   0.
   -11.42900   -14.75000   0.
   -11.42900   -15.88000   0.
   -11.42900   -17.56000   0.
   -11.42900   -20.09000   0.
   -11.42900   -23.89000   0.
   -11.42900   -29.59000   0.
   -11.42900   -38.13000   0.
   -11.42900   -50.94000   0.
   -11.42900   -70.17000   0.
   -11.42900   -99.00000   0.
    -8.29100     0.00000   0.
    -8.29100    -0.50000   0.
    -8.29100    -1.00000   0.
    -8.29100    -1.50000   0.
    -8.29100    -2.00000   0.
    -8.29100    -2.50000   0.
    -8.29100    -3.00000   0.
    -8.29100    -3.50000   0.
    -8.29100    -4.00000   0.
    -8.29100    -4.50000   0.
    -8.29100    -5.00000   0.
    -8.29100    -5.50000   0.
    -8.29100    -6.00000   0.
    -8.29100    -6.50000   0.
    -8.29100    -7.00000   0.
    -8.29100    -7.50000   0.
    -8.29100    -8.00000   0.
    -8.29100    -8.50000   0.
    -8.29100    -9.00000   0.
    -8.29100    -9.50000   0.
    -8.29100   -10.00000   0.
    -8.29100   -10.50000   0.
    -8.29100   -11.00000   0.
    -8.29100   -11.50000   0.
    -8.29100   -12.00000   0.
    -8.29100   -12.50000   0.
    -8.29100   -13.00000   0.
    -8.29100   -13.50000   0.
    -8.29100   -14.00000   0.
    -8.29100   -14.75000   0.
    -8.29100   -15.88000   0.
    -8.29100   -17.56000   0.
    -8.29100   -20.09000   0.
    -8.29100   -23.89000   0.
    -8.29100   -29.59000   0.
    -8.29100   -38.13000   0.
    -8.29100   -50.94000   0.
    -8.29100   -70.17000   0.
    -8.29100   -99.00000   0.
    -5.87800     0.00000   0.
    -5.87800    -0.50000   0.
    -5.87800    -1.00000   0.
    -5.87800    -1.50000   0.
    -5.87800    -2.00000   0.
    -5.87800    -2.50000   0.
    -5.87800    -3.00000   0.
    -5.87800    -3.50000   0.
    -5.87800    -4.00000   0.
    -5.87800    -4.50000   0.
    -5.87800    -5.00000   0.
    -5.87800    -5.50000   0.
    -5.87800    -6.00000   0.
    -5.87800    -6.50000   0.
    -5.87800    -7.00000   0.
    -5.87800    -7.50000   0.
    -5.87800    -8.00000   0.
    -5.87800    -8.50000   0.
    -5.87800    -9.00000   0.
    -5.87800    -9.50000   0.
    -5.87800   -10.00000   0.
    -5.87800   -10.50000   0.
    -5.87800   -11.00000   0.
    -5.87800   -11.50000   0.
    -5.87800   -12.00000   0.
    -5.87800   -12.50000   0.
    -5.87800   -13.00000   0.
    -5.87800   -13.50000   0.
    -5.87800   -14.00000   0.
    -5.87800   -14.75000   0.
    -5.87800   -15.88000   0.
    -5.87800   -17.56000   0.
    -5.87800   -20.09000   0.
    -5.87800   -23.89000   0.
    -5.87800   -29.59000   0.
    -5.87800   -38.13000   0.
    -5.87800   -50.94000   0.
    -5.87800   -70.17000   0.
    -5.87800   -99.00000   0.
    -4.02200     0.00000   0.
    -4.02200    -0.50000   0.
    -4.02200    -1.00000   0.
    -4.02200    -1.50000   0.
    -4.02200    -2.00000   0.
    -4.02200    -2.50000   0.
    -4.02200    -3.00000   0.
    -4.02200    -3.50000   0.
    -4.02200    -4.00000   0.
    -4.02200    -4.50000   0.
    -4.02200    -5.00000   0.
    -4.02200    -5.50000   0.
    -4.02200    -6.00000   0.
    -4.02200    -6.50000   0.
    -4.02200    -7.00000   0.
    -4.02200    -7.50000   0.
    -4.02200    -8.00000   0.
    -4.02200    -8.50000   0.
    -4.02200    -9.00000   0.
    -4.02200    -9.50000   0.
    -4.02200   -10.00000   0.
    -4.02200   -10.50000   0.
    -4.02200   -11.00000   0.
    -4.02200   -11.50000   0.
    -4.02200   -12.00000   0.
    -4.02200   -12.50000   0.
    -4.02200   -13.00000   0.
    -4.02200   -13.50000   0.
    -4.02200   -14.00000   0.
    -4.02200   -14.75000   0.
    -4.02200   -15.88000   0.
    -4.02200   -17.56000   0.
    -4.02200   -20.09000   0.
    -4.02200   -23.89000   0.
    -4.02200   -29.59000   0.
    -4.02200   -38.13000   0.
    -4.02200   -50.94000   0.
    -4.02200   -70.17000   0.
    -4.02200   -99.00000   0.
    -2.59300     0.00000   0.
    -2.59300    -0.50000   0.
    -2.59300    -1.00000   0.
    -2.59300    -1.50000   0.
    -2.59300    -2.00000   0.
    -2.59300    -2.50000   0.
    -2.59300    -3.00000   0.
    -2.59300    -3.50000   0.
    -2.59300    -4.00000   0.
    -2.59300    -4.50000   0.
    -2.59300    -5.00000   0.
    -2.59300    -5.50000   0.
    -2.59300    -6.00000   0.
    -2.59300    -6.50000   0.
    -2.59300    -7.00000   0.
    -2.59300    -7.50000   0.
    -2.59300    -8.00000   0.
    -2.59300    -8.50000   0.
    -2.59300    -9.00000   0.
    -2.59300    -9.50000   0.
    -2.59300   -10.00000   0.
    -2.59300   -10.50000   0.
    -2.59300   -11.00000   0.
    -2.59300   -11.50000   0.
    -2.59300   -12.00000   0.
    -2.59300   -12.50000   0.
    -2.59300   -13.00000   0.
    -2.59300   -13.50000   0.
    -2.59300   -14.00000   0.
    -2.59300   -14.75000   0.
    -2.59300   -15.88000   0.
    -2.59300   -17.56000   0.
    -2.59300   -20.09000   0.
    -2.59300   -23.89000   0.
    -2.59300   -29.59000   0.
    -2.59300   -38.13000   0.
    -2.59300   -50.94000   0.
    -2.59300   -70.17000   0.
    -2.59300   -99.00000   0.
    -1.49500     0.00000   0.
    -1.49500    -0.50000   0.
    -1.49500    -1.00000   0.
    -1.49500    -1.50000   0.
    -1.49500    -2.00000   0.
    -1.49500    -2.50000   0.
    -1.49500    -3.00000   0.
    -1.49500    -3.50000   0.
    -1.49500    -4.00000   0.
    -1.49500    -4.50000   0.
    -1.49500    -5.00000   0.
    -1.49500    -5.50000   0.
    -1.49500    -6.00000   0.
    -1.49500    -6.50000   0.
    -1.49500    -7.00000   0.
    -1.49500    -7.50000   0.
    -1.49500    -8.00000   0.
    -1.49500    -8.50000   0.
[...]
POINT_DATA      8151
CELL_DATA      7904
SCALARS Resistivity(Ohm-m) double 1
LOOKUP_TABLE default
           100.00000           100.00000           100.00000           100.00000           100.00000           100.00000           100.00000           100.00000           100.00000           100.00000           100.00000           100.00000           100.00000           100.00000           100.00000           100.00000           100.00000           100.00000           100.00000           100.00000           100.00000           100.00000           100.00000           100.00000           100.00000           100.00000           100.00000           100.00000           100.00000           100.00000           100.00000           100.00000           100.00000           100.00000           100.00000           100.00000           100.00000           100.00000           100.00000           100.00000           100.00000           100.00000           100.00000           100.00000           100.00000           100.00000           100.00000           100.00000           100.00000           100.00000           100.00000           100.00000           100.00000           100.00000           100.00000           100.00000           100.00000           100.00000           100.00000           100.00000           100.00000           100.00000           100.00000           100.00000           100.00000           100.00000           100.00000           100.00000           100.00000           100.00000           100.00000           100.00000           100.00000           100.00000           100.00000           100.00000           100.00000           100.00000           100.00000           100.00000           100.00000           100.00000           100.00000           100.00000           100.00000           100.00000           100.00000           100.00000           100.00000           100.00000           100.00000           100.00000           100.00000           100.00000           100.00000           100.00000           100.00000           100.00000           100.00000           100.00000           100.00000           100.00000           100.00000           100.00000           100.00000           100.00000           100.00000           100.00000           100.00000           100.00000           100.00000           100.00000           100.00000           100.00000           100.00000           100.00000           100.00000           100.00000           100.00000           100.00000           100.00000           100.00000           100.00000           100.00000           100.00000           100.00000           100.00000           100.00000           100.00000           100.00000           100.00000           100.00000           100.00000           100.00000           100.00000           100.00000           100.00000           100.00000           100.00000           100.00000           100.00000           100.00000           100.00000           100.00000           100.00000           100.00000           100.00000           100.00000           100.00000           100.00000           100.00000           100.00000           100.00000           100.00000           100.00000           100.00000           100.00000           100.00000           100.00000           100.00000           100.00000           100.00000           100.00000           100.00000           100.00000           100.00000           100.00000           100.00000           100.00000           100.00000           100.00000           100.00000           100.00000           100.00000           100.00000           100.00000           100.00000           100.00000           100.00000           100.00000           100.00000           100.00000           100.00000           100.00000           100.00000           100.00000           100.00000           100.00000           100.00000           100.00000           100.00000           100.00000           100.00000           100.00000           100.00000           100.00000           100.00000           100.00000           100.00000           100.00000           100.00000           100.00000           100.00000           100.00000           100.00000           100.00000           100.00000           100.00000           100.00000           100.00000           100.00000           100.00000           100.00000           100.00000           100.00000           100.00000           100.00000           100.00000           100.00000           100.00000           100.00000           100.00000           100.00000           100.00000           100.00000           100.00000           100.00000           100.00000           100.00000           100.00000           100.00000           100.00000           100.00000           100.00000           100.00000           100.00000           100.00000           100.00000           100.00000           100.00000           100.00000           100.00000           100.00000           100.00000           100.00000           100.00000           100.00000           100.00000           100.00000           100.00000           100.00000           100.00000           100.00000           100.00000           100.00000           100.00000           100.00000           100.00000           100.00000           100.00000           100.00000           100.00000           100.00000           100.00000           100.00000           100.00000           100.00000           100.00000           100.00000           100.00000           100.00000           100.00000           100.00000           100.00000           100.00000           100.00000           100.00000           100.00000           100.00000           100.00000           100.00000           100.00000           100.00000           100.00000           100.00000           100.00000           100.00000           100.00000           100.00000           100.00000           100.00000           100.00000           100.00000           100.00000           100.00000           100.00000           100.00000           100.00000           100.00000           100.00000           100.00000           100.00000           100.00000           100.00000           100.00000           100.00000           100.00000           100.00000           100.00000           100.00000           100.00000           100.00000           100.00000           100.00000           100.00000           100.00000           100.00000           100.00000           100.00000           100.00000           100.00000           100.00000           100.00000           100.00000           100.00000           100.00000           100.00000           100.00000           100.00000           100.00000           100.00000           100.00000           100.00000           100.00000           100.00000           100.00000           100.00000           100.00000           100.00000           100.00000           100.00000           100.00000           100.00000           100.00000           100.00000           100.00000           100.00000           100.00000           100.00000           100.00000           100.00000           100.00000           100.00000           100.00000           100.00000           100.00000           100.00000           100.00000           100.00000           100.00000           100.00000           100.00000           100.00000           100.00000           100.00000           100.00000           100.00000           100.00000           100.00000           100.00000           100.00000           100.00000           100.00000           100.00000           100.00000           100.00000           100.00000           100.00000           100.00000           100.00000           100.00000           100.00000           100.00000           100.00000           100.00000           100.00000           100.00000           100.00000           100.00000           100.00000           100.00000           100.00000           100.00000           100.00000           100.00000           100.00000           100.00000           100.00000           100.00000           100.00000           100.00000           100.00000           100.00000           100.00000           100.00000           100.00000           100.00000           100.00000           100.00000           100.00000           100.00000           100.00000           100.00000           100.00000           100.00000           100.00000           100.00000           100.00000           100.00000           100.00000           100.00000           100.00000           100.00000           100.00000           100.00000           100.00000           100.00000           100.00000           100.00000           100.00000           100.00000           100.00000           100.00000           100.00000           100.00000           100.00000           100.00000           100.00000           100.00000           100.00000           100.00000           100.00000           100.00000           100.00000           100.00000           100.00000           100.00000           100.00000           100.00000           100.00000           100.00000           100.00000           100.00000           100.00000           100.00000           100.00000           100.00000           100.00000           100.00000           100.00000           100.00000           100.00000           100.00000           100.00000           100.00000           100.00000           100.00000           100.00000           100.00000           100.00000           100.00000           100.00000           100.00000           100.00000           100.00000           100.00000           100.00000           100.00000           100.00000           100.00000           100.00000           100.00000           100.00000           100.00000           100.00000           100.00000           100.00000           100.00000           100.00000           100.00000           100.00000           100.00000           100.00000           100.00000           100.00000           100.00000           100.00000           100.00000           100.00000           100.00000           100.00000           100.00000           100.00000           100.00000           100.00000           100.00000           100.00000           100.00000           100.00000           100.00000           100.00000           100.00000           100.00000           100.00000           100.00000           100.00000           100.00000           100.00000           100.00000           100.00000           100.00000           100.00000           100.00000           100.00000           100.00000           100.00000           100.00000           100.00000           100.00000           100.00000           100.00000           100.00000           100.00000           100.00000           100.00000           100.00000           100.00000           100.00000           100.00000           100.00000           100.00000           100.00000           100.00000           100.00000           100.00000           100.00000           100.00000           100.00000           100.00000           100.00000           100.00000           100.00000           100.00000           100.00000           100.00000           100.00000           100.00000           100.00000           100.00000           100.00000           100.00000           100.00000           100.00000           100.00000           100.00000           100.00000           100.00000           100.00000           100.00000           100.00000           100.00000           100.00000           100.00000           100.00000           100.00000           100.00000           100.00000           100.00000           100.00000           100.00000           100.00000           100.00000           100.00000           100.00000           100.00000           100.00000           100.00000           100.00000           100.00000           100.00000           100.00000           100.00000           100.00000           100.00000           100.00000           100.00000           100.00000           100.00000           100.00000           100.00000           100.00000           100.00000           100.00000           100.00000           100.00000           100.00000           100.00000           100.00000           100.00000           100.00000           100.00000           100.00000           100.00000           100.00000           100.00000           100.00000           100.00000           100.00000           100.00000           100.00000           100.00000           100.00000           100.00000           100.00000           100.00000           100.00000           100.00000           100.00000           100.00000           100.00000           100.00000           100.00000           100.00000           100.00000           100.00000           100.00000           100.00000           100.00000           100.00000           100.00000           100.00000           100.00000           100.00000           100.00000           100.00000           100.00000           100.00000           100.00000           100.00000           100.00000           100.00000           100.00000           100.00000           100.00000           100.00000           100.00000           100.00000           100.00000           100.00000           100.00000           100.00000           100.00000           100.00000           100.00000           100.00000           100.00000           100.00000           100.00000           100.00000           100.00000           100.00000           100.00000           100.00000           100.00000           100.00000           100.00000           100.00000           100.00000           100.00000           100.00000           100.00000           100.00000           100.00000           100.00000           100.00000           100.00000           100.00000           100.00000           100.00000           100.00000           100.00000           100.00000           100.00000           100.00000           100.00000           100.00000           100.00000           100.00000           100.00000           100.00000           100.00000           100.00000           100.00000           100.00000           100.00000           100.00000           100.00000           100.00000           100.00000           100.00000           100.00000           100.00000           100.00000           100.00000           100.00000           100.00000           100.00000           100.00000           100.00000           100.00000           100.00000           100.00000           100.00000           100.00000           100.00000           100.00000           100.00000           100.00000           100.00000           100.00000           100.00000           100.00000           100.00000           100.00000           100.00000           100.00000           100.00000           100.00000           100.00000           100.00000           100.00000           100.00000           100.00000           100.00000           100.00000           100.00000           100.00000           100.00000           100.00000           100.00000           100.00000           100.00000           100.00000           100.00000           100.00000           100.00000           100.00000           100.00000           100.00000           100.00000           100.00000           100.00000           100.00000           100.00000           100.00000           100.00000           100.00000           100.00000           100.00000           100.00000           100.00000           100.00000           100.00000           100.00000           100.00000           100.00000           100.00000           100.00000           100.00000           100.00000           100.00000           100.00000           100.00000           100.00000           100.00000           100.00000           100.00000           100.00000           100.00000           100.00000           100.00000           100.00000           100.00000           100.00000           100.00000           100.00000           100.00000           100.00000           100.00000           100.00000           100.00000           100.00000           100.00000           100.00000           100.00000           100.00000           100.00000           100.00000           100.00000           100.00000           100.00000           100.00000           100.00000           100.00000           100.00000           100.00000           100.00000           100.00000           100.00000           100.00000           100.00000           100.00000           100.00000           100.00000           100.00000           100.00000           100.00000           100.00000           100.00000           100.00000           100.00000           100.00000           100.00000           100.00000           100.00000           100.00000           100.00000           100.00000           100.00000           100.00000           100.00000           100.00000           100.00000           100.00000           100.00000           100.00000           100.00000           100.00000           100.00000           100.00000           100.00000           100.00000           100.00000           100.00000           100.00000           100.00000           100.00000           100.00000           100.00000           100.00000           100.00000           100.00000           100.00000           100.00000           100.00000           100.00000           100.00000           100.00000           100.00000           100.00000           100.00000           100.00000           100.00000           100.00000           100.00000           100.00000           100.00000           100.00000           100.00000           100.00000           100.00000           100.00000           100.00000           100.00000           100.00000           100.00000           100.00000           100.00000           100.00000           100.00000           100.00000           100.00000           100.00000           100.00000           100.00000           100.00000           100.00000           100.00000           100.00000           100.00000           100.00000           100.00000           100.00000           100.00000           100.00000           100.00000           100.00000           100.00000           100.00000           100.00000           100.00000           100.00000           100.00000           100.00000           100.00000           100.00000           100.00000           100.00000           100.00000           100.00000           100.00000           100.00000           100.00000           100.00000           100.00000           100.00000           100.00000           100.00000           100.00000           100.00000           100.00000           100.00000           100.00000           100.00000           100.00000           100.00000           100.00000           100.00000           100.00000           100.00000           100.00000           100.00000           100.00000           100.00000           100.00000           100.00000           100.00000           100.00000           100.00000           100.00000           100.00000           100.00000           100.00000           100.00000           100.00000           100.00000           100.00000           100.00000           100.00000           100.00000           100.00000           100.00000           100.00000           100.00000           100.00000           100.00000           100.00000           100.00000           100.00000           100.00000           100.00000           100.00000           100.00000           100.00000           100.00000           100.00000           100.00000           100.00000           100.00000           100.00000           100.00000           100.00000           100.00000           100.00000           100.00000           100.00000           100.00000           100.00000           100.00000           100.00000           100.00000           100.00000           100.00000           100.00000           100.00000  