# vtk DataFile Version 3.0
Output from R2
ASCII
DATASET UNSTRUCTURED_GRID
POINTS       3717 double
  -150.00000     0.00000   0.
  -150.00000    -0.37500   0.
  -150.00000    -0.75000   0.
  -150.00000    -1.12500   0.
  -150.00000    -1.50000   0.
  -150.00000    -1.87500   0.
  -150.00000    -2.25000   0.
  -150.00000    -2.62500   0.
  -150.00000    -3.00000   0.
  -150.00000    -3.37500   0.
  -150.00000    -3.75000   0.
  -150.00000    -4.12500   0.
  -150.00000    -4.50000   0.
  -150.00000    -4.87500   0.
  -150.00000    -5.25000   0.
  -150.00000    -5.62500   0.
  -150.00000    -6.00000   0.
  -150.00000    -6.37500   0.
  -150.00000    -6.75000   0.
  -150.00000    -7.12500   0.
  -150.00000    -7.50000   0.
  -150.00000    -7.87500   0.
  -150.00000    -8.25000   0.
  -150.00000    -8.62500   0.
  -150.00000    -9.00000   0.
  -150.00000    -9.37500   0.
  -150.00000    -9.75000   0.
  -150.00000   -10.12500   0.
  -150.00000   -10.50000   0.
  -150.00000   -10.87500   0.
  -150.00000   -11.25000   0.
  -150.00000   -11.62500   0.
  -150.00000   -12.00000   0.
  -150.00000   -12.37500   0.
  -150.00000   -12.75000   0.
  -150.00000   -13.12500   0.
  -150.00000   -13.50000   0.
  -150.00000   -13.87500   0.
  -150.00000   -14.25000   0.
  -150.00000   -14.62500   0.
  -150.00000   -15.00000   0.
  -150.00000   -15.37500   0.
  -150.00000   -15.75000   0.
  -150.00000   -16.12500   0.
  -150.00000   -16.50000   0.
  -150.00000   -16.87500   0.
  -150.00000   -17.25000   0.
  -150.00000   -17.62500   0.
  -150.00000   -18.00000   0.
  -150.00000   -18.37500   0.
  -150.00000   -18.75000   0.
  -150.00000   -19.12500   0.
  -150.00000   -19.50000   0.
  -150.00000   -19.87500   0.
  -150.00000   -20.25000   0.
  -150.00000   -21.00000   0.
  -150.00000   -23.00000   0.
  -150.00000   -26.00000   0.
  -150.00000   -32.00000   0.
  -150.00000   -40.00000   0.
  -150.00000   -60.00000   0.
  -150.00000  -100.00000   0.
  -150.00000  -150.00000   0.
  -109.00500     0.00000   0.
  -109.00500    -0.37500   0.
  -109.00500    -0.75000   0.
  -109.00500    -1.12500   0.
  -109.00500    -1.50000   0.
  -109.00500    -1.87500   0.
  -109.00500    -2.25000   0.
  -109.00500    -2.62500   0.
  -109.00500    -3.00000   0.
  -109.00500    -3.37500   0.
  -109.00500    -3.75000   0.
  -109.00500    -4.12500   0.
  -109.00500    -4.50000   0.
  -109.00500    -4.87500   0.
  -109.00500    -5.25000   0.
  -109.00500    -5.62500   0.
  -109.00500    -6.00000   0.
  -109.00500    -6.37500   0.
  -109.00500    -6.75000   0.
  -109.00500    -7.12500   0.
  -109.00500    -7.50000   0.
  -109.00500    -7.87500   0.
  -109.00500    -8.25000   0.
  -109.00500    -8.62500   0.
  -109.00500    -9.00000   0.
  -109.00500    -9.37500   0.
  -109.00500    -9.75000   0.
  -109.00500   -10.12500   0.
  -109.00500   -10.50000   0.
  -109.00500   -10.87500   0.
  -109.00500   -11.25000   0.
  -109.00500   -11.62500   0.
  -109.00500   -12.00000   0.
  -109.00500   -12.37500   0.
  -109.00500   -12.75000   0.
  -109.00500   -13.12500   0.
  -109.00500   -13.50000   0.
  -109.00500   -13.87500   0.
  -109.00500   -14.25000   0.
  -109.00500   -14.62500   0.
  -109.00500   -15.00000   0.
  -109.00500   -15.37500   0.
  -109.00500   -15.75000   0.
  -109.00500   -16.12500   0.
  -109.00500   -16.50000   0.
  -109.00500   -16.87500   0.
  -109.00500   -17.25000   0.
  -109.00500   -17.62500   0.
  -109.00500   -18.00000   0.
  -109.00500   -18.37500   0.
  -109.00500   -18.75000   0.
  -109.00500   -19.12500   0.
  -109.00500   -19.50000   0.
  -109.00500   -19.87500   0.
  -109.00500   -20.25000   0.
  -109.00500   -21.00000   0.
  -109.00500   -23.00000   0.
  -109.00500   -26.00000   0.
  -109.00500   -32.00000   0.
  -109.00500   -40.00000   0.
  -109.00500   -60.00000   0.
  -109.00500  -100.00000   0.
  -109.00500  -150.00000   0.
   -79.21500     0.00000   0.
   -79.21500    -0.37500   0.
   -79.21500    -0.75000   0.
   -79.21500    -1.12500   0.
   -79.21500    -1.50000   0.
   -79.21500    -1.87500   0.
   -79.21500    -2.25000   0.
   -79.21500    -2.62500   0.
   -79.21500    -3.00000   0.
   -79.21500    -3.37500   0.
   -79.21500    -3.75000   0.
   -79.21500    -4.12500   0.
   -79.21500    -4.50000   0.
   -79.21500    -4.87500   0.
   -79.21500    -5.25000   0.
   -79.21500    -5.62500   0.
   -79.21500    -6.00000   0.
   -79.21500    -6.37500   0.
   -79.21500    -6.75000   0.
   -79.21500    -7.12500   0.
   -79.21500    -7.50000   0.
   -79.21500    -7.87500   0.
   -79.21500    -8.25000   0.
   -79.21500    -8.62500   0.
   -79.21500    -9.00000   0.
   -79.21500    -9.37500   0.
   -79.21500    -9.75000   0.
   -79.21500   -10.12500   0.
   -79.21500   -10.50000   0.
   -79.21500   -10.87500   0.
   -79.21500   -11.25000   0.
   -79.21500   -11.62500   0.
   -79.21500   -12.00000   0.
   -79.21500   -12.37500   0.
   -79.21500   -12.75000   0.
   -79.21500   -13.12500   0.
   -79.21500   -13.50000   0.
   -79.21500   -13.87500   0.
   -79.21500   -14.25000   0.
   -79.21500   -14.62500   0.
   -79.21500   -15.00000   0.
   -79.21500   -15.37500   0.
   -79.21500   -15.75000   0.
   -79.21500   -16.12500   0.
   -79.21500   -16.50000   0.
   -79.21500   -16.87500   0.
   -79.21500   -17.25000   0.
   -79.21500   -17.62500   0.
   -79.21500   -18.00000   0.
   -79.21500   -18.37500   0.
   -79.21500   -18.75000   0.
   -79.21500   -19.12500   0.
   -79.21500   -19.50000   0.
   -79.21500   -19.87500   0.
   -79.21500   -20.25000   0.
   -79.21500   -21.00000   0.
   -79.21500   -23.00000   0.
   -79.21500   -26.00000   0.
   -79.21500   -32.00000   0.
   -79.21500   -40.00000   0.
   -79.21500   -60.00000   0.
   -79.21500  -100.00000   0.
   -79.21500  -150.00000   0.
   -57.56500     0.00000   0.
   -57.56500    -0.37500   0.
   -57.56500    -0.75000   0.
   -57.56500    -1.12500   0.
   -57.56500    -1.50000   0.
   -57.56500    -1.87500   0.
   -57.56500    -2.25000   0.
   -57.56500    -2.62500   0.
   -57.56500    -3.00000   0.
   -57.56500    -3.37500   0.
   -57.56500    -3.75000   0.
   -57.56500    -4.12500   0.
   -57.56500    -4.50000   0.
   -57.56500    -4.87500   0.
   -57.56500    -5.25000   0.
   -57.56500    -5.62500   0.
   -57.56500    -6.00000   0.
   -57.56500    -6.37500   0.
   -57.56500    -6.75000   0.
   -57.56500    -7.12500   0.
   -57.56500    -7.50000   0.
   -57.56500    -7.87500   0.
   -57.56500    -8.25000   0.
   -57.56500    -8.62500   0.
   -57.56500    -9.00000   0.
   -57.56500    -9.37500   0.
   -57.56500    -9.75000   0.
   -57.56500   -10.12500   0.
   -57.56500   -10.50000   0.
   -57.56500   -10.87500   0.
   -57.56500   -11.25000   0.
   -57.56500   -11.62500   0.
   -57.56500   -12.00000   0.
   -57.56500   -12.37500   0.
   -57.56500   -12.75000   0.
   -57.56500   -13.12500   0.
   -57.56500   -13.50000   0.
   -57.56500   -13.87500   0.
   -57.56500   -14.25000   0.
   -57.56500   -14.62500   0.
   -57.56500   -15.00000   0.
   -57.56500   -15.37500   0.
   -57.56500   -15.75000   0.
   -57.56500   -16.12500   0.
   -57.56500   -16.50000   0.
   -57.56500   -16.87500   0.
   -57.56500   -17.25000   0.
   -57.56500   -17.62500   0.
   -57.56500   -18.00000   0.
   -57.56500   -18.37500   0.
   -57.56500   -18.75000   0.
   -57.56500   -19.12500   0.
   -57.56500   -19.50000   0.
   -57.56500   -19.87500   0.
   -57.56500   -20.25000   0.
   -57.56500   -21.00000   0.
   -57.56500   -23.00000   0.
   -57.56500   -26.00000   0.
   -57.56500   -32.00000   0.
   -57.56500   -40.00000   0.
   -57.56500   -60.00000   0.
   -57.56500  -100.00000   0.
   -57.56500  -150.00000   0.
   -41.83300     0.00000   0.
   -41.83300    -0.37500   0.
   -41.83300    -0.75000   0.
   -41.83300    -1.12500   0.
   -41.83300    -1.50000   0.
   -41.83300    -1.87500   0.
   -41.83300    -2.25000   0.
   -41.83300    -2.62500   0.
   -41.83300    -3.00000   0.
   -41.83300    -3.37500   0.
   -41.83300    -3.75000   0.
   -41.83300    -4.12500   0.
   -41.83300    -4.50000   0.
   -41.83300    -4.87500   0.
   -41.83300    -5.25000   0.
   -41.83300    -5.62500   0.
   -41.83300    -6.00000   0.
   -41.83300    -6.37500   0.
   -41.83300    -6.75000   0.
   -41.83300    -7.12500   0.
   -41.83300    -7.50000   0.
   -41.83300    -7.87500   0.
   -41.83300    -8.25000   0.
   -41.83300    -8.62500   0.
   -41.83300    -9.00000   0.
   -41.83300    -9.37500   0.
   -41.83300    -9.75000   0.
   -41.83300   -10.12500   0.
   -41.83300   -10.50000   0.
   -41.83300   -10.87500   0.
   -41.83300   -11.25000   0.
   -41.83300   -11.62500   0.
   -41.83300   -12.00000   0.
   -41.83300   -12.37500   0.
   -41.83300   -12.75000   0.
   -41.83300   -13.12500   0.
   -41.83300   -13.50000   0.
   -41.83300   -13.87500   0.
   -41.83300   -14.25000   0.
   -41.83300   -14.62500   0.
   -41.83300   -15.00000   0.
   -41.83300   -15.37500   0.
   -41.83300   -15.75000   0.
   -41.83300   -16.12500   0.
   -41.83300   -16.50000   0.
   -41.83300   -16.87500   0.
   -41.83300   -17.25000   0.
   -41.83300   -17.62500   0.
   -41.83300   -18.00000   0.
   -41.83300   -18.37500   0.
   -41.83300   -18.75000   0.
   -41.83300   -19.12500   0.
   -41.83300   -19.50000   0.
   -41.83300   -19.87500   0.
   -41.83300   -20.25000   0.
   -41.83300   -21.00000   0.
   -41.83300   -23.00000   0.
   -41.83300   -26.00000   0.
   -41.83300   -32.00000   0.
   -41.83300   -40.00000   0.
   -41.83300   -60.00000   0.
   -41.83300  -100.00000   0.
   -41.83300  -150.00000   0.
   -30.40000     0.00000   0.
   -30.40000    -0.37500   0.
   -30.40000    -0.75000   0.
   -30.40000    -1.12500   0.
   -30.40000    -1.50000   0.
   -30.40000    -1.87500   0.
   -30.40000    -2.25000   0.
   -30.40000    -2.62500   0.
   -30.40000    -3.00000   0.
   -30.40000    -3.37500   0.
   -30.40000    -3.75000   0.
   -30.40000    -4.12500   0.
   -30.40000    -4.50000   0.
   -30.40000    -4.87500   0.
   -30.40000    -5.25000   0.
[...]
POINT_DATA      3717
CELL_DATA      3596
SCALARS Resistivity(Ohm-m) double 1
LOOKUP_TABLE default
           478.27040           478.27040           478.27040           478.27040           478.27040           478.27040           478.27040           478.27040           478.27040           478.27040           478.27040           478.27040           478.27040           478.27040           478.27040           478.27040           478.27040           478.27040           478.27040           478.27040           478.27040           478.27040           478.27040           478.27040           478.27040           478.27040           478.27040           478.27040           478.27040           478.27040           478.27040           478.27040           478.27040           478.27040           478.27040           478.27040           478.27040           478.27040           478.27040           478.27040           478.27040           478.27040           478.27040           478.27040           478.27040           478.27040           478.27040           478.27040           478.27040           478.27040           478.27040           478.27040           478.27040           478.27040           478.27040           478.27040           478.27040           478.27040           478.27040           478.27040           478.27040           478.27040           478.27040           478.27040           478.27040           478.27040           478.27040           478.27040           478.27040           478.27040           478.27040           478.27040           478.27040           478.27040           478.27040           478.27040           478.27040           478.27040           478.27040           478.27040           478.27040           478.27040           478.27040           478.27040           478.27040           478.27040           478.27040           478.27040           478.27040           478.27040           478.27040           478.27040           478.27040           478.27040           478.27040           478.27040           478.27040           478.27040           478.27040           478.27040           478.27040           478.27040           478.27040           478.27040           478.27040           478.27040           478.27040           478.27040           478.27040           478.27040           478.27040           478.27040           478.27040           478.27040           478.27040           478.27040           478.27040           478.27040           478.27040           478.27040           478.27040           478.27040           478.27040           478.27040           478.27040           478.27040           478.27040           478.27040           478.27040           478.27040           478.27040           478.27040           478.27040           478.27040           478.27040           478.27040           478.27040           478.27040           478.27040           478.27040           478.27040           478.27040           478.27040           478.27040           478.27040           478.27040           478.27040           478.27040           478.27040           478.27040           478.27040           478.27040           478.27040           478.27040           478.27040           478.27040           478.27040           478.27040           478.27040           478.27040           478.27040           478.27040           478.27040           478.27040           478.27040           478.27040           478.27040           478.27040           478.27040           478.27040           478.27040           478.27040           478.27040           478.27040           478.27040           478.27040           478.27040           478.27040           478.27040           478.27040           478.27040           478.27040           478.27040           478.27040           478.27040           478.27040           478.27040           478.27040           478.27040           478.27040           478.27040           478.27040           478.27040           478.27040           478.27040           478.27040           478.27040           478.27040           478.27040           478.27040           478.27040           478.27040           478.27040           478.27040           478.27040           478.27040           478.27040           478.27040           478.27040           478.27040           478.27040           478.27040           478.27040           478.27040           478.27040           478.27040           478.27040           478.27040           478.27040           478.27040           478.27040           478.27040           478.27040           478.27040           478.27040           478.27040           478.27040           478.27040           478.27040           478.27040           478.27040           478.27040           478.27040           478.27040           478.27040           478.27040           478.27040           478.27040           478.27040           478.27040           478.27040           478.27040           478.27040           478.27040           478.27040           478.27040           478.27040           478.27040           478.27040           478.27040           478.27040           478.27040           478.27040           478.27040           478.27040           478.27040           478.27040           478.27040           478.27040           478.27040           478.27040           478.27040           478.27040           478.27040           478.27040           478.27040           478.27040           478.27040           478.27040           478.27040           478.27040           478.27040           478.27040           478.27040           478.27040           478.27040           478.27040           478.27040           478.27040           478.27040           478.27040           478.27040           478.27040           478.27040           478.27040           478.27040           478.27040           478.27040           478.27040           478.27040           478.27040           478.27040           478.27040           478.27040           478.27040           478.27040           478.27040           478.27040           478.27040           478.27040           478.27040           478.27040           478.27040           478.27040           478.27040           478.27040           478.27040           478.27040           478.27040           478.27040           478.27040           478.27040           478.27040           478.27040           478.27040           478.27040           478.27040           478.27040           478.27040           478.27040           478.27040           478.27040           478.27040           478.27040           478.27040           478.27040           478.27040           478.27040           478.27040           478.27040           478.27040           478.27040           478.27040           478.27040           478.27040           478.27040           478.27040           478.27040           478.27040           478.27040           478.27040           478.27040           478.27040           478.27040           478.27040           478.27040           478.27040           478.27040           478.27040           478.27040           478.27040           478.27040           478.27040           478.27040           478.27040           478.27040           478.27040           478.27040           478.27040           478.27040           478.27040           478.27040           478.27040           478.27040           478.27040           478.27040           478.27040           478.27040           478.27040           478.27040           478.27040           478.27040           478.27040           478.27040           478.27040           478.27040           478.27040           478.27040           478.27040           478.27040           478.27040           478.27040           478.27040           478.27040           478.27040           478.27040           478.27040           478.27040           478.27040           478.27040           478.27040           478.27040           478.27040           478.27040           478.27040           478.27040           478.27040           478.27040           478.27040           478.27040           478.27040           478.27040           478.27040           478.27040           478.27040           478.27040           478.27040           478.27040           478.27040             2.40969             2.40969             2.40969           478.27040           478.27040           478.27040           478.27040           478.27040           478.27040           478.27040           478.27040           478.27040           478.27040           478.27040           478.27040           478.27040           478.27040           478.27040           478.27040           478.27040           478.27040           478.27040           478.27040           478.27040           478.27040           478.27040           478.27040           478.27040           478.27040           478.27040           478.27040           478.27040           478.27040           478.27040           478.27040           478.27040           478.27040           478.27040           478.27040           478.27040           478.27040           478.27040           478.27040           478.27040           478.27040           478.27040           478.27040           478.27040           478.27040           478.27040           478.27040           478.27040           478.27040           478.27040           478.27040           478.27040           478.27040           478.27040           478.27040           478.27040           478.27040           478.27040           478.27040           478.27040           478.27040           478.27040           478.27040           478.27040           478.27040           478.27040           478.27040           478.27040           478.27040           478.27040           478.27040           478.27040           478.27040           478.27040           478.27040           478.27040           478.27040           478.27040           478.27040           478.27040           478.27040           478.27040           478.27040           478.27040           478.27040           478.27040           478.27040           478.27040           478.27040           478.27040           478.27040           478.27040           478.27040           478.27040           478.27040           478.27040           478.27040           478.27040           478.27040           478.27040           478.27040           478.27040           478.27040           478.27040           478.27040           478.27040           478.27040           478.27040           478.27040           478.27040           478.27040           478.27040           478.27040           478.27040           478.27040           478.27040           478.27040           478.27040           478.27040           478.27040           478.27040           478.27040           478.27040           478.27040           478.27040           478.27040           478.27040           478.27040           478.27040           478.27040           478.27040           478.27040           478.27040           478.27040           478.27040           478.27040           478.27040           478.27040           478.27040           478.27040           478.27040           478.27040           478.27040           478.27040           478.27040           478.27040           478.27040           478.27040           478.27040           478.27040           478.27040           478.27040           478.27040           478.27040           478.27040           478.27040           478.27040           478.27040           478.27040           478.27040           478.27040           478.27040           478.27040           478.27040           478.27040           478.27040           478.27040           478.27040           478.27040           478.27040           478.27040           478.27040           478.27040           478.27040           478.27040           478.27040           478.27040           478.27040           478.27040           478.27040           478.27040           478.27040           478.27040           478.27040           478.27040           478.27040           478.27040           478.27040           478.27040           478.27040           478.27040           478.27040           478.27040           478.27040           478.27040           478.27040           478.27040           478.27040           478.27040           478.27040           478.27040           478.27040           478.27040           478.27040           478.27040           478.27040           478.27040           478.27040           478.27040           478.27040           478.27040           478.27040           478.27040           478.27040           478.27040           478.27040           478.27040           478.27040           478.27040           478.27040           478.27040           478.27040           478.27040           478.27040           478.27040           478.27040           478.27040           478.27040           478.27040           478.27040           478.27040           478.27040           478.27040           478.27040           478.27040           478.27040           478.27040           478.27040           478.27040           478.27040           478.27040           478.27040           478.27040           478.27040           478.27040           478.27040           478.27040           478.27040           478.27040           478.27040           478.27040           478.27040           478.27040           478.27040           478.27040           478.27040           478.27040           478.27040           478.27040           478.27040           478.27040           478.27040           478.27040           478.27040           478.27040           478.27040           478.27040           478.27040           478.27040           478.27040           478.27040           478.27040           478.27040           478.27040           478.27040           478.27040           478.27040           478.27040           478.27040           478.27040           478.27040           478.27040           478.27040           478.27040           478.27040           478.27040           478.27040           478.27040           478.27040           478.27040           478.27040           478.27040           478.27040           478.27040           478.27040           478.27040           478.27040           478.27040           478.27040           478.27040           478.27040           478.27040           478.27040           478.27040           478.27040           478.27040           478.27040           478.27040           478.27040           478.27040           478.27040           478.27040           478.27040           478.27040           478.27040           478.27040           478.27040           478.27040           478.27040           478.27040           478.27040           478.27040           478.27040           478.27040           478.27040           478.27040           478.27040           478.27040           478.27040           478.27040           478.27040           478.27040           478.27040           478.27040           478.27040           478.27040           478.27040           478.27040           478.27040           478.27040           478.27040           478.27040           478.27040           478.27040           478.27040           478.27040           478.27040           478.27040           478.27040           478.27040           478.27040           478.27040           478.27040           478.27040           478.27040           478.27040           478.27040           478.27040           478.27040           478.27040           478.27040           478.27040           478.27040           478.27040           478.27040           478.27040           478.27040           478.27040           478.27040           478.27040           478.27040           478.27040           478.27040           478.27040           478.27040           478.27040           478.27040           478.27040           478.27040           478.27040           478.27040           478.27040           478.27040           478.27040           478.27040           478.27040           478.27040           478.27040           478.27040           478.27040           478.27040           478.27040           478.27040           478.27040           478.27040           478.27040           478.27040           478.27040           478.27040           478.27040           478.27040           478.27040           478.27040           478.27040           478.27040           478.27040           478.27040           478.27040           478.27040           478.27040           478.27040           478.27040           478.27040           478.27040           478.27040           478.27040           478.27040           478.27040           478.27040           478.27040           478.27040           478.27040           478.27040           478.27040           478.27040           478.27040           478.27040           478.27040           478.27040           478.27040           478.27040           478.27040           478.27040           478.27040           478.27040           478.27040           478.27040           478.27040           478.27040           478.27040           478.27040           478.27040           478.27040           478.27040           478.27040           478.27040           478.27040           478.27040           478.27040           478.27040           478.27040           478.27040           478.27040           478.27040           478.27040           478.27040           478.27040           478.27040           478.27040           478.27040           478.27040           478.27040           478.27040           478.27040           478.27040           478.27040           478.27040           478.27040           478.27040           478.27040           478.27040           478.27040           478.27040           478.27040           478.27040           478.27040           478.27040           478.27040           478.27040           478.27040           478.27040           478.27040           478.27040           478.27040           478.27040           478.27040           478.27040           478.27040           478.27040           478.27040           478.27040           478.27040           478.27040           478.27040           478.27040           478.27040           478.27040           478.27040           478.27040           478.27040           478.27040           478.27040           478.27040           478.27040           478.27040           478.27040           478.27040           478.27040           478.27040           478.27040           478.27040           478.27040           478.27040           478.27040           478.27040           478.27040           478.27040           478.27040           478.27040           478.27040           478.27040           478.27040           478.27040           478.27040           478.27040           478.27040           478.27040           478.27040           478.27040           478.27040           478.27040           478.27040           478.27040           478.27040           478.27040           478.27040           478.27040           478.27040           478.27040           478.27040           478.27040           478.27040           478.27040           478.27040           478.27040           478.27040           478.27040           478.27040           478.27040           478.27040           478.27040           478.27040           478.27040           478.27040           478.27040           478.27040           478.27040           478.27040           478.27040           478.27040           478.27040           478.27040           478.27040           478.27040           478.27040           478.27040           478.27040           478.27040           478.27040           478.27040           478.27040           478.27040           478.27040           478.27040           478.27040           478.27040           478.27040           478.27040           478.27040           478.27040           478.27040           478.27040  