# vtk DataFile Version 3.0
Output from R2
ASCII
DATASET UNSTRUCTURED_GRID
POINTS       6497 double
   -50.74600     8.00000   0.
   -50.74600     7.75000   0.
   -50.74600     7.50000   0.
   -50.74600     7.25000   0.
   -50.74600     7.00000   0.
   -50.74600     6.75000   0.
   -50.74600     6.50000   0.
   -50.74600     6.25000   0.
   -50.74600     6.00000   0.
   -50.74600     5.75000   0.
   -50.74600     5.50000   0.
   -50.74600     5.25000   0.
   -50.74600     5.00000   0.
   -50.74600     4.75000   0.
   -50.74600     4.50000   0.
   -50.74600     4.25000   0.
   -50.74600     4.00000   0.
   -50.74600     3.75000   0.
   -50.74600     3.50000   0.
   -50.74600     3.25000   0.
   -50.74600     3.00000   0.
   -50.74600     2.75000   0.
   -50.74600     2.50000   0.
   -50.74600     2.25000   0.
   -50.74600     2.00000   0.
   -50.74600     1.75000   0.
   -50.74600     1.50000   0.
   -50.74600     1.25000   0.
   -50.74600     1.00000   0.
   -50.74600     0.75000   0.
   -50.74600     0.50000   0.
   -50.74600     0.25000   0.
   -50.74600     0.00000   0.
   -50.74600    -0.25000   0.
   -50.74600    -0.50000   0.
   -50.74600    -0.75000   0.
   -50.74600    -1.00000   0.
   -50.74600    -1.25000   0.
   -50.74600    -1.50000   0.
   -50.74600    -1.75000   0.
   -50.74600    -2.00000   0.
   -50.74600    -2.25000   0.
   -50.74600    -2.50000   0.
   -50.74600    -2.75000   0.
   -50.74600    -3.00000   0.
   -50.74600    -3.25000   0.
   -50.74600    -3.50000   0.
   -50.74600    -3.75000   0.
   -50.74600    -4.00000   0.
   -50.74600    -4.25000   0.
   -50.74600    -4.50000   0.
   -50.74600    -4.75000   0.
   -50.74600    -5.00000   0.
   -50.74600    -5.25000   0.
   -50.74600    -5.50000   0.
   -50.74600    -5.75000   0.
   -50.74600    -6.00000   0.
   -50.74600    -6.25000   0.
   -50.74600    -6.50000   0.
   -50.74600    -6.75000   0.
   -50.74600    -7.00000   0.
   -50.74600    -7.25000   0.
   -50.74600    -7.50000   0.
   -50.74600    -7.75000   0.
   -50.74600    -8.00000   0.
   -50.74600    -8.42500   0.
   -50.74600    -9.14700   0.
   -50.74600   -10.37600   0.
   -50.74600   -12.46400   0.
   -50.74600   -16.01300   0.
   -50.74600   -22.04800   0.
   -50.74600   -32.30600   0.
   -50.74600   -49.74600   0.
   -33.30600     8.00000   0.
   -33.30600     7.75000   0.
   -33.30600     7.50000   0.
   -33.30600     7.25000   0.
   -33.30600     7.00000   0.
   -33.30600     6.75000   0.
   -33.30600     6.50000   0.
   -33.30600     6.25000   0.
   -33.30600     6.00000   0.
   -33.30600     5.75000   0.
   -33.30600     5.50000   0.
   -33.30600     5.25000   0.
   -33.30600     5.00000   0.
   -33.30600     4.75000   0.
   -33.30600     4.50000   0.
   -33.30600     4.25000   0.
   -33.30600     4.00000   0.
   -33.30600     3.75000   0.
   -33.30600     3.50000   0.
   -33.30600     3.25000   0.
   -33.30600     3.00000   0.
   -33.30600     2.75000   0.
   -33.30600     2.50000   0.
   -33.30600     2.25000   0.
   -33.30600     2.00000   0.
   -33.30600     1.75000   0.
   -33.30600     1.50000   0.
   -33.30600     1.25000   0.
   -33.30600     1.00000   0.
   -33.30600     0.75000   0.
   -33.30600     0.50000   0.
   -33.30600     0.25000   0.
   -33.30600     0.00000   0.
   -33.30600    -0.25000   0.
   -33.30600    -0.50000   0.
   -33.30600    -0.75000   0.
   -33.30600    -1.00000   0.
   -33.30600    -1.25000   0.
   -33.30600    -1.50000   0.
   -33.30600    -1.75000   0.
   -33.30600    -2.00000   0.
   -33.30600    -2.25000   0.
   -33.30600    -2.50000   0.
   -33.30600    -2.75000   0.
   -33.30600    -3.00000   0.
   -33.30600    -3.25000   0.
   -33.30600    -3.50000   0.
   -33.30600    -3.75000   0.
   -33.30600    -4.00000   0.
   -33.30600    -4.25000   0.
   -33.30600    -4.50000   0.
   -33.30600    -4.75000   0.
   -33.30600    -5.00000   0.
   -33.30600    -5.25000   0.
   -33.30600    -5.50000   0.
   -33.30600    -5.75000   0.
   -33.30600    -6.00000   0.
   -33.30600    -6.25000   0.
   -33.30600    -6.50000   0.
   -33.30600    -6.75000   0.
   -33.30600    -7.00000   0.
   -33.30600    -7.25000   0.
   -33.30600    -7.50000   0.
   -33.30600    -7.75000   0.
   -33.30600    -8.00000   0.
   -33.30600    -8.42500   0.
   -33.30600    -9.14700   0.
   -33.30600   -10.37600   0.
   -33.30600   -12.46400   0.
   -33.30600   -16.01300   0.
   -33.30600   -22.04800   0.
   -33.30600   -32.30600   0.
   -33.30600   -49.74600   0.
   -23.04800     8.00000   0.
   -23.04800     7.75000   0.
   -23.04800     7.50000   0.
   -23.04800     7.25000   0.
   -23.04800     7.00000   0.
   -23.04800     6.75000   0.
   -23.04800     6.50000   0.
   -23.04800     6.25000   0.
   -23.04800     6.00000   0.
   -23.04800     5.75000   0.
   -23.04800     5.50000   0.
   -23.04800     5.25000   0.
   -23.04800     5.00000   0.
   -23.04800     4.75000   0.
   -23.04800     4.50000   0.
   -23.04800     4.25000   0.
   -23.04800     4.00000   0.
   -23.04800     3.75000   0.
   -23.04800     3.50000   0.
   -23.04800     3.25000   0.
   -23.04800     3.00000   0.
   -23.04800     2.75000   0.
   -23.04800     2.50000   0.
   -23.04800     2.25000   0.
   -23.04800     2.00000   0.
   -23.04800     1.75000   0.
   -23.04800     1.50000   0.
   -23.04800     1.25000   0.
   -23.04800     1.00000   0.
   -23.04800     0.75000   0.
   -23.04800     0.50000   0.
   -23.04800     0.25000   0.
   -23.04800     0.00000   0.
   -23.04800    -0.25000   0.
   -23.04800    -0.50000   0.
   -23.04800    -0.75000   0.
   -23.04800    -1.00000   0.
   -23.04800    -1.25000   0.
   -23.04800    -1.50000   0.
   -23.04800    -1.75000   0.
   -23.04800    -2.00000   0.
   -23.04800    -2.25000   0.
   -23.04800    -2.50000   0.
   -23.04800    -2.75000   0.
   -23.04800    -3.00000   0.
   -23.04800    -3.25000   0.
   -23.04800    -3.50000   0.
   -23.04800    -3.75000   0.
   -23.04800    -4.00000   0.
   -23.04800    -4.25000   0.
   -23.04800    -4.50000   0.
   -23.04800    -4.75000   0.
   -23.04800    -5.00000   0.
   -23.04800    -5.25000   0.
   -23.04800    -5.50000   0.
   -23.04800    -5.75000   0.
   -23.04800    -6.00000   0.
   -23.04800    -6.25000   0.
   -23.04800    -6.50000   0.
   -23.04800    -6.75000   0.
   -23.04800    -7.00000   0.
   -23.04800    -7.25000   0.
   -23.04800    -7.50000   0.
   -23.04800    -7.75000   0.
   -23.04800    -8.00000   0.
   -23.04800    -8.42500   0.
   -23.04800    -9.14700   0.
   -23.04800   -10.37600   0.
   -23.04800   -12.46400   0.
   -23.04800   -16.01300   0.
   -23.04800   -22.04800   0.
   -23.04800   -32.30600   0.
   -23.04800   -49.74600   0.
   -17.01300     8.00000   0.
   -17.01300     7.75000   0.
   -17.01300     7.50000   0.
   -17.01300     7.25000   0.
   -17.01300     7.00000   0.
   -17.01300     6.75000   0.
   -17.01300     6.50000   0.
   -17.01300     6.25000   0.
   -17.01300     6.00000   0.
   -17.01300     5.75000   0.
   -17.01300     5.50000   0.
   -17.01300     5.25000   0.
   -17.01300     5.00000   0.
   -17.01300     4.75000   0.
   -17.01300     4.50000   0.
   -17.01300     4.25000   0.
   -17.01300     4.00000   0.
   -17.01300     3.75000   0.
   -17.01300     3.50000   0.
   -17.01300     3.25000   0.
   -17.01300     3.00000   0.
   -17.01300     2.75000   0.
   -17.01300     2.50000   0.
   -17.01300     2.25000   0.
   -17.01300     2.00000   0.
   -17.01300     1.75000   0.
   -17.01300     1.50000   0.
   -17.01300     1.25000   0.
   -17.01300     1.00000   0.
   -17.01300     0.75000   0.
   -17.01300     0.50000   0.
   -17.01300     0.25000   0.
   -17.01300     0.00000   0.
   -17.01300    -0.25000   0.
   -17.01300    -0.50000   0.
   -17.01300    -0.75000   0.
   -17.01300    -1.00000   0.
   -17.01300    -1.25000   0.
   -17.01300    -1.50000   0.
   -17.01300    -1.75000   0.
   -17.01300    -2.00000   0.
   -17.01300    -2.25000   0.
   -17.01300    -2.50000   0.
   -17.01300    -2.75000   0.
   -17.01300    -3.00000   0.
   -17.01300    -3.25000   0.
   -17.01300    -3.50000   0.
   -17.01300    -3.75000   0.
   -17.01300    -4.00000   0.
   -17.01300    -4.25000   0.
   -17.01300    -4.50000   0.
   -17.01300    -4.75000   0.
   -17.01300    -5.00000   0.
   -17.01300    -5.25000   0.
   -17.01300    -5.50000   0.
   -17.01300    -5.75000   0.
   -17.01300    -6.00000   0.
   -17.01300    -6.25000   0.
   -17.01300    -6.50000   0.
   -17.01300    -6.75000   0.
   -17.01300    -7.00000   0.
   -17.01300    -7.25000   0.
   -17.01300    -7.50000   0.
   -17.01300    -7.75000   0.
   -17.01300    -8.00000   0.
   -17.01300    -8.42500   0.
   -17.01300    -9.14700   0.
   -17.01300   -10.37600   0.
   -17.01300   -12.46400   0.
   -17.01300   -16.01300   0.
   -17.01300   -22.04800   0.
   -17.01300   -32.30600   0.
   -17.01300   -49.74600   0.
   -13.46400     8.00000   0.
   -13.46400     7.75000   0.
   -13.46400     7.50000   0.
   -13.46400     7.25000   0.
   -13.46400     7.00000   0.
   -13.46400     6.75000   0.
   -13.46400     6.50000   0.
   -13.46400     6.25000   0.
   -13.46400     6.00000   0.
   -13.46400     5.75000   0.
   -13.46400     5.50000   0.
   -13.46400     5.25000   0.
   -13.46400     5.00000   0.
   -13.46400     4.75000   0.
   -13.46400     4.50000   0.
   -13.46400     4.25000   0.
   -13.46400     4.00000   0.
   -13.46400     3.75000   0.
   -13.46400     3.50000   0.
   -13.46400     3.25000   0.
   -13.46400     3.00000   0.
   -13.46400     2.75000   0.
   -13.46400     2.50000   0.
   -13.46400     2.25000   0.
   -13.46400     2.00000   0.
   -13.46400     1.75000   0.
   -13.46400     1.50000   0.
[...]
POINT_DATA      6497
CELL_DATA      6336
SCALARS Resistivity(Ohm-m) double 1
LOOKUP_TABLE default
           100.00000           100.00000           100.00000           100.00000           100.00000           100.00000           100.00000           100.00000           100.00000           100.00000           100.00000           100.00000           100.00000           100.00000           100.00000           100.00000           100.00000           100.00000           100.00000           100.00000           100.00000           100.00000           100.00000           100.00000           100.00000           100.00000           100.00000           100.00000           100.00000           100.00000           100.00000           100.00000           100.00000           100.00000           100.00000           100.00000           100.00000           100.00000           100.00000           100.00000           100.00000           100.00000           100.00000           100.00000           100.00000           100.00000           100.00000           100.00000           100.00000           100.00000           100.00000           100.00000           100.00000           100.00000           100.00000           100.00000           100.00000           100.00000           100.00000           100.00000           100.00000           100.00000           100.00000           100.00000           100.00000           100.00000           100.00000           100.00000           100.00000           100.00000           100.00000           100.00000           100.00000           100.00000           100.00000           100.00000           100.00000           100.00000           100.00000           100.00000           100.00000           100.00000           100.00000           100.00000           100.00000           100.00000           100.00000           100.00000           100.00000           100.00000           100.00000           100.00000           100.00000           100.00000           100.00000           100.00000           100.00000           100.00000           100.00000           100.00000           100.00000           100.00000           100.00000           100.00000           100.00000           100.00000           100.00000           100.00000           100.00000           100.00000           100.00000           100.00000           100.00000           100.00000           100.00000           100.00000           100.00000           100.00000           100.00000           100.00000           100.00000           100.00000           100.00000           100.00000           100.00000           100.00000           100.00000           100.00000           100.00000           100.00000           100.00000           100.00000           100.00000           100.00000           100.00000           100.00000           100.00000           100.00000           100.00000           100.00000           100.00000           100.00000           100.00000           100.00000           100.00000           100.00000           100.00000           100.00000           100.00000           100.00000           100.00000           100.00000           100.00000           100.00000           100.00000           100.00000           100.00000           100.00000           100.00000           100.00000           100.00000           100.00000           100.00000           100.00000           100.00000           100.00000           100.00000           100.00000           100.00000           100.00000           100.00000           100.00000           100.00000           100.00000           100.00000           100.00000           100.00000           100.00000           100.00000           100.00000           100.00000           100.00000           100.00000           100.00000           100.00000           100.00000           100.00000           100.00000           100.00000           100.00000           100.00000           100.00000           100.00000           100.00000           100.00000           100.00000           100.00000           100.00000           100.00000           100.00000           100.00000           100.00000           100.00000           100.00000           100.00000           100.00000           100.00000           100.00000           100.00000           100.00000           100.00000           100.00000           100.00000           100.00000           100.00000           100.00000           100.00000           100.00000           100.00000           100.00000           100.00000           100.00000           100.00000           100.00000           100.00000           100.00000           100.00000           100.00000           100.00000           100.00000           100.00000           100.00000           100.00000           100.00000           100.00000           100.00000           100.00000           100.00000           100.00000           100.00000           100.00000           100.00000           100.00000           100.00000           100.00000           100.00000           100.00000           100.00000           100.00000           100.00000           100.00000           100.00000           100.00000           100.00000           100.00000           100.00000           100.00000           100.00000           100.00000           100.00000           100.00000           100.00000           100.00000           100.00000           100.00000           100.00000           100.00000           100.00000           100.00000           100.00000           100.00000           100.00000           100.00000           100.00000           100.00000           100.00000           100.00000           100.00000           100.00000           100.00000           100.00000           100.00000           100.00000           100.00000           100.00000           100.00000           100.00000           100.00000           100.00000           100.00000           100.00000           100.00000           100.00000           100.00000           100.00000           100.00000           100.00000           100.00000           100.00000           100.00000           100.00000           100.00000           100.00000           100.00000           100.00000           100.00000           100.00000           100.00000           100.00000           100.00000           100.00000           100.00000           100.00000           100.00000           100.00000           100.00000           100.00000           100.00000           100.00000           100.00000           100.00000           100.00000           100.00000           100.00000           100.00000           100.00000           100.00000           100.00000           100.00000           100.00000           100.00000           100.00000           100.00000           100.00000           100.00000           100.00000           100.00000           100.00000           100.00000           100.00000           100.00000           100.00000           100.00000           100.00000           100.00000           100.00000           100.00000           100.00000           100.00000           100.00000           100.00000           100.00000           100.00000           100.00000           100.00000           100.00000           100.00000           100.00000           100.00000           100.00000           100.00000           100.00000           100.00000           100.00000           100.00000           100.00000           100.00000           100.00000           100.00000           100.00000           100.00000           100.00000           100.00000           100.00000           100.00000           100.00000           100.00000           100.00000           100.00000           100.00000           100.00000           100.00000           100.00000           100.00000           100.00000           100.00000           100.00000           100.00000           100.00000           100.00000           100.00000           100.00000           100.00000           100.00000           100.00000           100.00000           100.00000           100.00000           100.00000           100.00000           100.00000           100.00000           100.00000           100.00000           100.00000           100.00000           100.00000           100.00000           100.00000           100.00000           100.00000           100.00000           100.00000           100.00000           100.00000           100.00000           100.00000           100.00000           100.00000           100.00000           100.00000           100.00000           100.00000           100.00000           100.00000           100.00000           100.00000           100.00000           100.00000           100.00000           100.00000           100.00000           100.00000           100.00000           100.00000           100.00000           100.00000           100.00000           100.00000           100.00000           100.00000           100.00000           100.00000           100.00000           100.00000           100.00000           100.00000           100.00000           100.00000           100.00000           100.00000           100.00000           100.00000           100.00000           100.00000           100.00000           100.00000           100.00000           100.00000           100.00000           100.00000           100.00000           100.00000           100.00000           100.00000           100.00000           100.00000           100.00000           100.00000           100.00000           100.00000           100.00000           100.00000           100.00000           100.00000           100.00000           100.00000           100.00000           100.00000           100.00000           100.00000           100.00000           100.00000           100.00000           100.00000           100.00000           100.00000           100.00000           100.00000           100.00000           100.00000           100.00000           100.00000           100.00000           100.00000           100.00000           100.00000           100.00000           100.00000           100.00000           100.00000           100.00000           100.00000           100.00000           100.00000           100.00000           100.00000           100.00000           100.00000           100.00000           100.00000           100.00000           100.00000           100.00000           100.00000           100.00000           100.00000           100.00000           100.00000           100.00000           100.00000           100.00000           100.00000           100.00000           100.00000           100.00000           100.00000           100.00000           100.00000           100.00000           100.00000           100.00000           100.00000           100.00000           100.00000           100.00000           100.00000           100.00000           100.00000           100.00000           100.00000           100.00000           100.00000           100.00000           100.00000           100.00000           100.00000           100.00000           100.00000           100.00000           100.00000           100.00000           100.00000           100.00000           100.00000           100.00000           100.00000           100.00000           100.00000           100.00000           100.00000           100.00000           100.00000           100.00000           100.00000           100.00000           100.00000           100.00000           100.00000           100.00000           100.00000           100.00000           100.00000           100.00000           100.00000           100.00000           100.00000           100.00000           100.00000           100.00000           100.00000           100.00000           100.00000           100.00000           100.00000           100.00000           100.00000           100.00000           100.00000           100.00000           100.00000           100.00000           100.00000           100.00000           100.00000           100.00000           100.00000           100.00000           100.00000           100.00000           100.00000           100.00000           100.00000           100.00000           100.00000           100.00000           100.00000           100.00000           100.00000           100.00000           100.00000           100.00000           100.00000           100.00000           100.00000           100.00000           100.00000           100.00000           100.00000           100.00000           100.00000           100.00000           100.00000           100.00000           100.00000           100.00000           100.00000           100.00000           100.00000           100.00000           100.00000           100.00000           100.00000           100.00000           100.00000           100.00000           100.00000           100.00000           100.00000           100.00000           100.00000           100.00000           100.00000           100.00000           100.00000           100.00000           100.00000           100.00000           100.00000           100.00000           100.00000           100.00000           100.00000           100.00000           100.00000           100.00000           100.00000           100.00000           100.00000           100.00000           100.00000           100.00000           100.00000           100.00000           100.00000           100.00000           100.00000           100.00000           100.00000           100.00000           100.00000           100.00000           100.00000           100.00000           100.00000           100.00000           100.00000           100.00000           100.00000           100.00000           100.00000           100.00000           100.00000           100.00000           100.00000           100.00000           100.00000           100.00000           100.00000           100.00000           100.00000           100.00000           100.00000           100.00000           100.00000           100.00000           100.00000           100.00000           100.00000           100.00000           100.00000           100.00000           100.00000           100.00000           100.00000           100.00000           100.00000           100.00000           100.00000           100.00000           100.00000           100.00000           100.00000           100.00000           100.00000           100.00000           100.00000           100.00000           100.00000           100.00000           100.00000           100.00000           100.00000           100.00000           100.00000           100.00000           100.00000           100.00000           100.00000           100.00000           100.00000           100.00000           100.00000           100.00000           100.00000           100.00000           100.00000           100.00000           100.00000           100.00000           100.00000           100.00000           100.00000           100.00000           100.00000           100.00000           100.00000           100.00000           100.00000           100.00000           100.00000           100.00000           100.00000           100.00000           100.00000           100.00000           100.00000           100.00000           100.00000           100.00000           100.00000           100.00000           100.00000           100.00000           100.00000           100.00000           100.00000           100.00000           100.00000           100.00000           100.00000           100.00000           100.00000           100.00000           100.00000           100.00000           100.00000           100.00000           100.00000           100.00000           100.00000           100.00000           100.00000           100.00000           100.00000           100.00000           100.00000           100.00000           100.00000           100.00000           100.00000           100.00000           100.00000           100.00000           100.00000           100.00000           100.00000           100.00000           100.00000           100.00000           100.00000           100.00000           100.00000           100.00000           100.00000           100.00000           100.00000           100.00000           100.00000           100.00000           100.00000           100.00000           100.00000           100.00000           100.00000           100.00000           100.00000           100.00000           100.00000           100.00000           100.00000           100.00000           100.00000           100.00000           100.00000           100.00000           100.00000           100.00000           100.00000           100.00000           100.00000           100.00000           100.00000           100.00000           100.00000           100.00000           100.00000           100.00000           100.00000           100.00000           100.00000           100.00000           100.00000           100.00000           100.00000           100.00000           100.00000           100.00000           100.00000           100.00000           100.00000           100.00000           100.00000           100.00000           100.00000           100.00000           100.00000           100.00000           100.00000           100.00000           100.00000           100.00000           100.00000           100.00000           100.00000           100.00000           100.00000           100.00000           100.00000           100.00000           100.00000           100.00000           100.00000           100.00000           100.00000           100.00000           100.00000           100.00000           100.00000           100.00000           100.00000           100.00000           100.00000           100.00000           100.00000           100.00000           100.00000           100.00000           100.00000           100.00000           100.00000           100.00000           100.00000           100.00000           100.00000           100.00000           100.00000           100.00000           100.00000           100.00000           100.00000           100.00000           100.00000           100.00000           100.00000           100.00000           100.00000           100.00000           100.00000           100.00000           100.00000           100.00000           100.00000           100.00000           100.00000           100.00000           100.00000           100.00000           100.00000           100.00000           100.00000           100.00000           100.00000           100.00000           100.00000           100.00000           100.00000           100.00000           100.00000           100.00000           100.00000           100.00000           100.00000           100.00000           100.00000           100.00000           100.00000           100.00000           100.00000           100.00000           100.00000           100.00000           100.00000           100.00000           100.00000           100.00000           100.00000           100.00000           100.00000           100.00000           100.00000           100.00000           100.00000           100.00000           100.00000           100.00000           100.00000           100.00000           100.00000           100.00000           100.00000           100.00000           100.00000           100.00000           100.00000           100.00000           100.00000           100.00000           100.00000           100.00000           100.00000           100.00000           100.00000           100.00000           100.00000           100.00000           100.00000           100.00000           100.00000           100.00000           100.00000           100.00000           100.00000           100.00000           100.00000           100.00000           100.00000           100.00000           100.00000           100.00000           100.00000           100.00000           100.00000           100.00000           100.000