# vtk DataFile Version 3.0
Output from R2
ASCII
DATASET UNSTRUCTURED_GRID
POINTS      11025 double
  -190.50000     0.00000   0.
  -190.50000    -0.25000   0.
  -190.50000    -0.50000   0.
  -190.50000    -0.75000   0.
  -190.50000    -1.00000   0.
  -190.50000    -1.25000   0.
  -190.50000    -1.50000   0.
  -190.50000    -1.75000   0.
  -190.50000    -2.00000   0.
  -190.50000    -2.25000   0.
  -190.50000    -2.50000   0.
  -190.50000    -2.75000   0.
  -190.50000    -3.00000   0.
  -190.50000    -3.25000   0.
  -190.50000    -3.50000   0.
  -190.50000    -3.75000   0.
  -190.50000    -4.00000   0.
  -190.50000    -4.25000   0.
  -190.50000    -4.50000   0.
  -190.50000    -4.75000   0.
  -190.50000    -5.00000   0.
  -190.50000    -5.25000   0.
  -190.50000    -5.50000   0.
  -190.50000    -5.75000   0.
  -190.50000    -6.00000   0.
  -190.50000    -6.25000   0.
  -190.50000    -6.50000   0.
  -190.50000    -6.75000   0.
  -190.50000    -7.00000   0.
  -190.50000    -7.25000   0.
  -190.50000    -7.50000   0.
  -190.50000    -7.75000   0.
  -190.50000    -8.00000   0.
  -190.50000    -8.25000   0.
  -190.50000    -8.50000   0.
  -190.50000    -8.75000   0.
  -190.50000    -9.00000   0.
  -190.50000    -9.25000   0.
  -190.50000    -9.50000   0.
  -190.50000    -9.75000   0.
  -190.50000   -10.00000   0.
  -190.50000   -10.50000   0.
  -190.50000   -11.50000   0.
  -190.50000   -13.50000   0.
  -190.50000   -18.50000   0.
  -190.50000   -28.50000   0.
  -190.50000   -48.50000   0.
  -190.50000   -98.50000   0.
  -190.50000  -198.50000   0.
   -90.50000     0.00000   0.
   -90.50000    -0.25000   0.
   -90.50000    -0.50000   0.
   -90.50000    -0.75000   0.
   -90.50000    -1.00000   0.
   -90.50000    -1.25000   0.
   -90.50000    -1.50000   0.
   -90.50000    -1.75000   0.
   -90.50000    -2.00000   0.
   -90.50000    -2.25000   0.
   -90.50000    -2.50000   0.
   -90.50000    -2.75000   0.
   -90.50000    -3.00000   0.
   -90.50000    -3.25000   0.
   -90.50000    -3.50000   0.
   -90.50000    -3.75000   0.
   -90.50000    -4.00000   0.
   -90.50000    -4.25000   0.
   -90.50000    -4.50000   0.
   -90.50000    -4.75000   0.
   -90.50000    -5.00000   0.
   -90.50000    -5.25000   0.
   -90.50000    -5.50000   0.
   -90.50000    -5.75000   0.
   -90.50000    -6.00000   0.
   -90.50000    -6.25000   0.
   -90.50000    -6.50000   0.
   -90.50000    -6.75000   0.
   -90.50000    -7.00000   0.
   -90.50000    -7.25000   0.
   -90.50000    -7.50000   0.
   -90.50000    -7.75000   0.
   -90.50000    -8.00000   0.
   -90.50000    -8.25000   0.
   -90.50000    -8.50000   0.
   -90.50000    -8.75000   0.
   -90.50000    -9.00000   0.
   -90.50000    -9.25000   0.
   -90.50000    -9.50000   0.
   -90.50000    -9.75000   0.
   -90.50000   -10.00000   0.
   -90.50000   -10.50000   0.
   -90.50000   -11.50000   0.
   -90.50000   -13.50000   0.
   -90.50000   -18.50000   0.
   -90.50000   -28.50000   0.
   -90.50000   -48.50000   0.
   -90.50000   -98.50000   0.
   -90.50000  -198.50000   0.
   -40.50000     0.00000   0.
   -40.50000    -0.25000   0.
   -40.50000    -0.50000   0.
   -40.50000    -0.75000   0.
   -40.50000    -1.00000   0.
   -40.50000    -1.25000   0.
   -40.50000    -1.50000   0.
   -40.50000    -1.75000   0.
   -40.50000    -2.00000   0.
   -40.50000    -2.25000   0.
   -40.50000    -2.50000   0.
   -40.50000    -2.75000   0.
   -40.50000    -3.00000   0.
   -40.50000    -3.25000   0.
   -40.50000    -3.50000   0.
   -40.50000    -3.75000   0.
   -40.50000    -4.00000   0.
   -40.50000    -4.25000   0.
   -40.50000    -4.50000   0.
   -40.50000    -4.75000   0.
   -40.50000    -5.00000   0.
   -40.50000    -5.25000   0.
   -40.50000    -5.50000   0.
   -40.50000    -5.75000   0.
   -40.50000    -6.00000   0.
   -40.50000    -6.25000   0.
   -40.50000    -6.50000   0.
   -40.50000    -6.75000   0.
   -40.50000    -7.00000   0.
   -40.50000    -7.25000   0.
   -40.50000    -7.50000   0.
   -40.50000    -7.75000   0.
   -40.50000    -8.00000   0.
   -40.50000    -8.25000   0.
   -40.50000    -8.50000   0.
   -40.50000    -8.75000   0.
   -40.50000    -9.00000   0.
   -40.50000    -9.25000   0.
   -40.50000    -9.50000   0.
   -40.50000    -9.75000   0.
   -40.50000   -10.00000   0.
   -40.50000   -10.50000   0.
   -40.50000   -11.50000   0.
   -40.50000   -13.50000   0.
   -40.50000   -18.50000   0.
   -40.50000   -28.50000   0.
   -40.50000   -48.50000   0.
   -40.50000   -98.50000   0.
   -40.50000  -198.50000   0.
   -20.50000     0.00000   0.
   -20.50000    -0.25000   0.
   -20.50000    -0.50000   0.
   -20.50000    -0.75000   0.
   -20.50000    -1.00000   0.
   -20.50000    -1.25000   0.
   -20.50000    -1.50000   0.
   -20.50000    -1.75000   0.
   -20.50000    -2.00000   0.
   -20.50000    -2.25000   0.
   -20.50000    -2.50000   0.
   -20.50000    -2.75000   0.
   -20.50000    -3.00000   0.
   -20.50000    -3.25000   0.
   -20.50000    -3.50000   0.
   -20.50000    -3.75000   0.
   -20.50000    -4.00000   0.
   -20.50000    -4.25000   0.
   -20.50000    -4.50000   0.
   -20.50000    -4.75000   0.
   -20.50000    -5.00000   0.
   -20.50000    -5.25000   0.
   -20.50000    -5.50000   0.
   -20.50000    -5.75000   0.
   -20.50000    -6.00000   0.
   -20.50000    -6.25000   0.
   -20.50000    -6.50000   0.
   -20.50000    -6.75000   0.
   -20.50000    -7.00000   0.
   -20.50000    -7.25000   0.
   -20.50000    -7.50000   0.
   -20.50000    -7.75000   0.
   -20.50000    -8.00000   0.
   -20.50000    -8.25000   0.
   -20.50000    -8.50000   0.
   -20.50000    -8.75000   0.
   -20.50000    -9.00000   0.
   -20.50000    -9.25000   0.
   -20.50000    -9.50000   0.
   -20.50000    -9.75000   0.
   -20.50000   -10.00000   0.
   -20.50000   -10.50000   0.
   -20.50000   -11.50000   0.
   -20.50000   -13.50000   0.
   -20.50000   -18.50000   0.
   -20.50000   -28.50000   0.
   -20.50000   -48.50000   0.
   -20.50000   -98.50000   0.
   -20.50000  -198.50000   0.
   -10.50000     0.00000   0.
   -10.50000    -0.25000   0.
   -10.50000    -0.50000   0.
   -10.50000    -0.75000   0.
   -10.50000    -1.00000   0.
   -10.50000    -1.25000   0.
   -10.50000    -1.50000   0.
   -10.50000    -1.75000   0.
   -10.50000    -2.00000   0.
   -10.50000    -2.25000   0.
   -10.50000    -2.50000   0.
   -10.50000    -2.75000   0.
   -10.50000    -3.00000   0.
   -10.50000    -3.25000   0.
   -10.50000    -3.50000   0.
   -10.50000    -3.75000   0.
   -10.50000    -4.00000   0.
   -10.50000    -4.25000   0.
   -10.50000    -4.50000   0.
   -10.50000    -4.75000   0.
   -10.50000    -5.00000   0.
   -10.50000    -5.25000   0.
   -10.50000    -5.50000   0.
   -10.50000    -5.75000   0.
   -10.50000    -6.00000   0.
   -10.50000    -6.25000   0.
   -10.50000    -6.50000   0.
   -10.50000    -6.75000   0.
   -10.50000    -7.00000   0.
   -10.50000    -7.25000   0.
   -10.50000    -7.50000   0.
   -10.50000    -7.75000   0.
   -10.50000    -8.00000   0.
   -10.50000    -8.25000   0.
   -10.50000    -8.50000   0.
   -10.50000    -8.75000   0.
   -10.50000    -9.00000   0.
   -10.50000    -9.25000   0.
   -10.50000    -9.50000   0.
   -10.50000    -9.75000   0.
   -10.50000   -10.00000   0.
   -10.50000   -10.50000   0.
   -10.50000   -11.50000   0.
   -10.50000   -13.50000   0.
   -10.50000   -18.50000   0.
   -10.50000   -28.50000   0.
   -10.50000   -48.50000   0.
   -10.50000   -98.50000   0.
   -10.50000  -198.50000   0.
    -5.50000     0.00000   0.
    -5.50000    -0.25000   0.
    -5.50000    -0.50000   0.
    -5.50000    -0.75000   0.
    -5.50000    -1.00000   0.
    -5.50000    -1.25000   0.
    -5.50000    -1.50000   0.
    -5.50000    -1.75000   0.
    -5.50000    -2.00000   0.
    -5.50000    -2.25000   0.
    -5.50000    -2.50000   0.
    -5.50000    -2.75000   0.
    -5.50000    -3.00000   0.
    -5.50000    -3.25000   0.
    -5.50000    -3.50000   0.
    -5.50000    -3.75000   0.
    -5.50000    -4.00000   0.
    -5.50000    -4.25000   0.
    -5.50000    -4.50000   0.
    -5.50000    -4.75000   0.
    -5.50000    -5.00000   0.
    -5.50000    -5.25000   0.
    -5.50000    -5.50000   0.
    -5.50000    -5.75000   0.
    -5.50000    -6.00000   0.
    -5.50000    -6.25000   0.
    -5.50000    -6.50000   0.
    -5.50000    -6.75000   0.
    -5.50000    -7.00000   0.
    -5.50000    -7.25000   0.
    -5.50000    -7.50000   0.
    -5.50000    -7.75000   0.
    -5.50000    -8.00000   0.
    -5.50000    -8.25000   0.
    -5.50000    -8.50000   0.
    -5.50000    -8.75000   0.
    -5.50000    -9.00000   0.
    -5.50000    -9.25000   0.
    -5.50000    -9.50000   0.
    -5.50000    -9.75000   0.
    -5.50000   -10.00000   0.
    -5.50000   -10.50000   0.
    -5.50000   -11.50000   0.
    -5.50000   -13.50000   0.
    -5.50000   -18.50000   0.
    -5.50000   -28.50000   0.
    -5.50000   -48.50000   0.
    -5.50000   -98.50000   0.
    -5.50000  -198.50000   0.
    -3.50000     0.00000   0.
    -3.50000    -0.25000   0.
    -3.50000    -0.50000   0.
    -3.50000    -0.75000   0.
    -3.50000    -1.00000   0.
    -3.50000    -1.25000   0.
    -3.50000    -1.50000   0.
    -3.50000    -1.75000   0.
    -3.50000    -2.00000   0.
    -3.50000    -2.25000   0.
    -3.50000    -2.50000   0.
    -3.50000    -2.75000   0.
    -3.50000    -3.00000   0.
    -3.50000    -3.25000   0.
    -3.50000    -3.50000   0.
    -3.50000    -3.75000   0.
    -3.50000    -4.00000   0.
    -3.50000    -4.25000   0.
    -3.50000    -4.50000   0.
    -3.50000    -4.75000   0.
    -3.50000    -5.00000   0.
    -3.50000    -5.25000   0.
    -3.50000    -5.50000   0.
    -3.50000    -5.75000   0.
    -3.50000    -6.00000   0.
    -3.50000    -6.25000   0.
    -3.50000    -6.50000   0.
    -3.50000    -6.75000   0.
    -3.50000    -7.00000   0.
    -3.50000    -7.25000   0.
    -3.50000    -7.50000   0.
    -3.50000    -7.75000   0.
    -3.50000    -8.00000   0.
    -3.50000    -8.25000   0.
    -3.50000    -8.50000   0.
    -3.50000    -8.75000   0.
[...]
POINT_DATA     11025
CELL_DATA     10752
SCALARS Resistivity(Ohm-m) double 1
LOOKUP_TABLE default
          2500.00000          2500.00000          2500.00000          2500.00000          2500.00000          2500.00000          2500.00000          2500.00000          2500.00000          2500.00000          2500.00000          2500.00000          2500.00000          2500.00000          2500.00000          2500.00000          2500.00000          2500.00000          2500.00000          2500.00000          2500.00000          2500.00000          2500.00000          2500.00000          2500.00000          2500.00000          2500.00000          2500.00000          2500.00000          2500.00000          2500.00000          2500.00000          2500.00000          2500.00000          2500.00000          2500.00000          2500.00000          2500.00000          2500.00000          2500.00000          2500.00000          2500.00000          2500.00000          2500.00000          2500.00000          2500.00000          2500.00000          2500.00000          2500.00000          2500.00000          2500.00000          2500.00000          2500.00000          2500.00000          2500.00000          2500.00000          2500.00000          2500.00000          2500.00000          2500.00000          2500.00000          2500.00000          2500.00000          2500.00000          2500.00000          2500.00000          2500.00000          2500.00000          2500.00000          2500.00000          2500.00000          2500.00000          2500.00000          2500.00000          2500.00000          2500.00000          2500.00000          2500.00000          2500.00000          2500.00000          2500.00000          2500.00000          2500.00000          2500.00000          2500.00000          2500.00000          2500.00000          2500.00000          2500.00000          2500.00000          2500.00000          2500.00000          2500.00000          2500.00000          2500.00000          2500.00000          2500.00000          2500.00000          2500.00000          2500.00000          2500.00000          2500.00000          2500.00000          2500.00000          2500.00000          2500.00000          2500.00000          2500.00000          2500.00000          2500.00000          2500.00000          2500.00000          2500.00000          2500.00000          2500.00000          2500.00000          2500.00000          2500.00000          2500.00000          2500.00000          2500.00000          2500.00000          2500.00000          2500.00000          2500.00000          2500.00000          2500.00000          2500.00000          2500.00000          2500.00000          2500.00000          2500.00000          2500.00000          2500.00000          2500.00000          2500.00000          2500.00000          2500.00000          2500.00000          2500.00000          2500.00000          2500.00000          2500.00000          2500.00000           413.88000           407.36000           409.05000           336.96000           244.98000           251.09000           254.95000           269.46000           210.50000           211.32000           196.43000           202.97000           246.71000           315.09000           323.03000           332.76000           362.95000           423.19000           333.05000           325.07000           361.49000           344.10000           313.77000           323.18000           245.51000           201.16000           214.28000           178.86000          1640.00000          1605.30000          1707.40000          1433.60000          1771.60000          2217.20000          2235.10000          1801.80000          1927.10000          2342.90000          1850.50000          1489.10000          2215.40000          3712.70000          5096.40000          2651.70000          2500.00000          2500.00000          2500.00000          2500.00000           175.24000           175.49000           159.39000           157.11000           192.10000           164.23000           158.62000           207.06000           258.09000           223.18000           220.56000           250.81000           266.03000           279.72000           277.86000           300.62000           255.79000           258.12000           251.56000           261.25000           282.11000           354.30000           330.72000           323.74000           335.30000           368.83000           321.42000           268.38000          2129.20000          3049.60000          2665.10000          4403.80000          4493.50000          4939.30000          2934.70000          2568.50000          2395.60000          2871.10000          4561.10000          6376.80000          8272.60000          4638.70000          2678.10000          1993.20000          2500.00000          2500.00000          2500.00000          2500.00000           198.57000           185.01000           199.84000           212.01000           238.95000           242.67000           232.05000           241.45000           235.87000           199.98000           209.93000           203.89000           225.99000           197.21000           179.08000           210.73000           236.73000           236.29000           292.03000           275.09000           246.19000           230.98000           263.55000           338.60000           323.40000           380.33000           352.96000           374.35000          3326.80000          2951.60000          2984.90000          2808.50000          5126.70000          5187.30000          4555.10000          5541.30000          3997.10000          5362.50000          7310.90000          7418.20000          6068.50000          7411.30000          3801.20000          2524.80000          2500.00000          2500.00000          2500.00000          2500.00000           231.38000           219.36000           216.09000           215.36000           251.82000           282.67000           248.96000           243.30000           218.49000           217.26000           217.20000           198.66000           215.90000           184.31000           168.40000           182.93000           258.44000           280.46000           263.54000           235.93000           229.79000           223.69000           250.18000           303.69000           314.43000           340.06000           340.70000           326.33000          5137.80000          3666.20000          3583.30000          3573.60000          4500.00000          5881.70000          6556.70000          6528.20000          4736.20000          7138.80000          9387.90000          9146.00000          7187.00000          8507.30000          3811.90000          3536.20000          2500.00000          2500.00000          2500.00000          2500.00000           233.94000           240.03000           206.12000           214.47000           258.13000           287.11000           254.02000           247.70000           207.71000           230.44000           222.91000           198.24000           213.70000           193.12000           166.00000           183.68000           235.32000           267.19000           246.05000           223.72000           209.88000           220.54000           245.15000           262.81000           296.10000           347.42000           341.91000           331.30000          5175.60000          3511.80000          3254.90000          3805.00000          4146.10000          4848.60000          7061.10000          7081.60000          5304.70000          6640.60000          8501.00000          9442.50000          7827.60000          9046.10000          3653.50000          3876.70000          2500.00000          2500.00000          2500.00000          2500.00000           247.80000           241.30000           220.47000           215.02000           265.79000           294.24000           257.61000           246.78000           208.80000           238.52000           228.34000           197.32000           214.03000           191.63000           166.86000           188.82000           225.12000           261.40000           233.62000           219.27000           201.86000           218.99000           243.00000           252.02000           277.43000           338.15000           349.86000           341.35000          4964.80000          3357.10000          3155.60000          3728.70000          3814.90000          4930.60000          6494.70000          6540.10000          5435.00000          6631.90000          7715.80000          9225.70000          7725.60000          9801.90000          3517.30000          4044.20000          2500.00000          2500.00000          2500.00000          2500.00000           251.65000           247.62000           231.49000           220.26000           272.93000           299.35000           263.30000           252.97000           215.63000           239.02000           229.80000           199.61000           209.83000           195.05000           172.87000           186.49000           217.10000           254.75000           230.61000           221.14000           200.18000           218.10000           238.88000           247.03000           268.16000           328.15000           348.82000           345.54000          4754.10000          3349.10000          3002.00000          3829.70000          3594.60000          4765.10000          5906.30000          6311.20000          5339.20000          6795.10000          7463.30000          8794.90000          7757.30000         10385.00000          3406.70000          4078.70000          2500.00000          2500.00000          2500.00000          2500.00000           255.14000           260.24000           236.45000           221.83000           273.94000           299.11000           265.49000           256.80000           228.65000           235.56000           225.07000           199.79000           204.90000           196.27000           179.54000           186.84000           209.03000           241.37000           222.01000           227.54000           198.80000           216.58000           237.67000           242.65000           267.95000           330.72000           345.73000           351.43000          4674.80000          3365.00000          3197.40000          3979.00000          3374.30000          4433.30000          5679.20000          5989.00000          5540.60000          6844.20000          7058.20000          8756.70000          8114.00000         10806.00000          3463.30000          3923.10000          2500.00000          2500.00000          2500.00000          2500.00000           266.55000           266.71000           247.12000           225.17000           267.43000           300.75000           265.47000           262.29000           237.16000           234.20000           218.91000           201.45000           199.07000           193.01000           188.97000           186.51000           206.20000           229.95000           214.91000           229.54000           200.12000           218.40000           231.82000           232.38000           262.55000           325.45000           342.40000           335.95000          4508.90000          3127.80000          3347.60000          4159.10000          3305.00000          4393.80000          5848.20000          5683.30000          5531.30000          6294.60000          6822.20000          8175.80000          8394.80000         10931.00000          3490.60000          3810.30000          2500.00000          2500.00000          2500.00000          2500.00000           273.99000           267.90000           257.28000           228.75000           270.20000           298.41000           267.56000           268.66000           243.64000           236.49000           216.06000           201.52000           196.40000           185.87000           195.21000           185.65000           200.38000           215.61000           205.06000           228.80000           201.42000           220.77000           229.58000           224.63000           254.29000           316.26000           339.33000           326.63000          4087.00000          3053.80000          3611.00000          4177.30000          3360.80000          4504.60000          6141.10000          5714.60000          5571.00000          6006.30000          6553.10000          7710.20000          8786.50000         11265.00000          3332.00000          3634.90000          2500.00000          2500.00000          2500.00000          2500.00000           285.82000           271.55000           267.56000           234.24000           273.48000           290.94000           263.94000           263.07000           250.13000           238.42000           215.00000           203.21000           194.58000           184.04000           192.94000           190.65000           195.20000           210.83000           198.93000           225.20000           204.89000           226.06000           227.44000           222.56000           249.42000           297.67000           321.21000           319.76000          3547.90000          3123.30000          3712.00000          4012.20000          3551.40000          4448.40000          6183.80000          5851.70000          5448.10000          5855.80000          6108.60000          7182.10000          9360.40000         11068.00000          3205.70000          3532.10000          2500.00000          2500.00000          2500.00000          2500.00000           299.63000           272.90000           276.69000           243.28000           272.06000           283.55000           268.46000           258.06000           248.30000           238.89000           206.02000           203.73000           197.56000           186.36000           190.89000           196.39000           191.09000           199.35000           195.53000           218.34000           204.38000           226.56000           225.58000           225.53000           248.45000           286.45000           303.57000           312.86000          3260.00000          3324.50000          4012.90000          4038.60000          3711.40000          4499.00000          6275.30000          5592.30000          5379.90000          5503.00000          5621.00000          7241.40000          9710.00000         10927.00000          3178.10000          3526.60000          2500.00000          2500.00000          2500.00000          2500.00000           305.15000           270.93000           287.09000           251.01000           269.23000           288.36000           268.38000           250.14000           243.96000           239.96000           196.86000           203.67000           200.26000           188.19000           188.83000           194.87000           188.98000           190.59000           194.28000           213.23000           203.57000           223.88000           225.21000           223.13000           240.18000           278.58000           288.34000           299.36000          3272.00000          3315.70000          4103.30000          4236.50000          3821.70000          4435.60000          5976.80000          5314.90000          5101.20000          5153.20000          5289.90000          7481.10000          9666.00000         10380.00000          3146.30000          3258.90000          2500.00000          2500.00000          2500.00000          2500.00000           304.11000           277.17000           293.02000           258.95000           276.85000           286.63000           266.22000           247.30000           234.29000           247.92000           192.46000           202.00000           206.31000           187.01000           180.59000           194.49000           183.54000           179.91000           194.43000           207.79000           195.46000           220.25000           226.77000           223.31000           235.70000           269.23000           274.91000           294.91000          3134.00000          3197.50000          4222.80000          4639.70000          4023.60000          4348.30000          5713.60000          5081.40000          4862.50000          4854.80000          5158.80000          7190.20000          9071.50000         10256.00000          3240.10000          3014.20000          2500.00000          2500.00000          2500.00000          2500.00000           311.65000           281.78000           298.79000           267.72000           280.80000           287.25000           267.10000           239.46000           223.14000           252.53000           192.21000           200.95000           212.03000           187.93000           177.25000           192.80000           180.41000           168.06000           190.86000           202.54000           190.43000           216.16000           222.71000           223.00000           227.74000           261.89000           271.41000           293.60000          2970.50000          3076.90000          4237.00000          4644.70000          4376.60000          4418.90000          5353.80000          4716.40000          4412.70000          4337.40000          5031.60000          7026.90000          8239.10000          9942.60000          3281.70000          2864.90000          2500.00000          2500.00000          2500.00000          2500.00000           319.77000           297.58000           306.04000           281.08000           293.61000           295.23000           273.00000           225.46000           214.82000           241.70000           189.04000           200.96000           215.39000           190.91000           174.69000           193.13000           175.15000           157.30000           187.41000           192.57000           182.88000           209.13000           226.52000           212.74000           214.22000           255.55000           266.48000           293.54000          2873.90000          3044.30000          4317.40000          4849.10000          4569.90000          4292.80000          4997.10000          4197.50000          4090.80000          4138.50000          4457.60000          6562.00000          7258.30000          9210.60000          3317.40000          2718.80000          2500.00000          2500.00000          2500.00000          2500.00000           320.13000           308.25000           320.73000           294.34000           300.42000           307.87000           276.36000           214.43000           212.27000           232.37000           188.93000           198.32000           214.19000           192.06000           176.87000           192.24000           168.53000           147.50000           181.70000           183.99000           171.68000           196.80000           222.86000           199.39000           205.20000           248.89000           262.26000           303.43000          2866.50000          2984.00000          4165.00000          4940.90000          4641.10000          4279.80000          4655.00000          3671.20000          3831.70000          3714.90000          4037.00000          6199.80000          6300.60000          8765.60000          3266.30000          2677.30000          2500.00000          2500.00000          2500.00000          2500.00000           324.90000           311.71000           326.09000           312.83000           311.25000           321.18000           278.19000           210.81000           213.54000           228.87000           186.12000           198.68000           209.47000           193.37000           183.08000           191.44000           164.98000           144.60000           175.14000           175.34000           158.65000           182.80000           219.00000           197.22000           200.93000           236.31000           254.34000           306.12000          2681.80000          3121.10000          4083.60000          4949.60000          4897.80000          4318.90000          4427.30000  